 Entering Gaussian System, Link 0=g09
 Input=input.inp
 Output=input.log
 Initial command:
 /usr/common/software/g09/d1/g09/l1.exe "/global/cscratch1/sd/kehangha/Gau-40305.inp" -scrdir="/global/cscratch1/sd/kehangha/"
 Entering Link 1 = /usr/common/software/g09/d1/g09/l1.exe PID=     40306.
  
 Copyright (c) 1988,1990,1992,1993,1995,1998,2003,2009,2013,
            Gaussian, Inc.  All Rights Reserved.
  
 This is part of the Gaussian(R) 09 program.  It is based on
 the Gaussian(R) 03 system (copyright 2003, Gaussian, Inc.),
 the Gaussian(R) 98 system (copyright 1998, Gaussian, Inc.),
 the Gaussian(R) 94 system (copyright 1995, Gaussian, Inc.),
 the Gaussian 92(TM) system (copyright 1992, Gaussian, Inc.),
 the Gaussian 90(TM) system (copyright 1990, Gaussian, Inc.),
 the Gaussian 88(TM) system (copyright 1988, Gaussian, Inc.),
 the Gaussian 86(TM) system (copyright 1986, Carnegie Mellon
 University), and the Gaussian 82(TM) system (copyright 1983,
 Carnegie Mellon University). Gaussian is a federally registered
 trademark of Gaussian, Inc.
  
 This software contains proprietary and confidential information,
 including trade secrets, belonging to Gaussian, Inc.
  
 This software is provided under written license and may be
 used, copied, transmitted, or stored only in accord with that
 written license.
  
 The following legend is applicable only to US Government
 contracts under FAR:
  
                    RESTRICTED RIGHTS LEGEND
  
 Use, reproduction and disclosure by the US Government is
 subject to restrictions as set forth in subparagraphs (a)
 and (c) of the Commercial Computer Software - Restricted
 Rights clause in FAR 52.227-19.
  
 Gaussian, Inc.
 340 Quinnipiac St., Bldg. 40, Wallingford CT 06492
  
  
 ---------------------------------------------------------------
 Warning -- This program may not be used in any manner that
 competes with the business of Gaussian, Inc. or will provide
 assistance to any competitor of Gaussian, Inc.  The licensee
 of this program is prohibited from giving any competitor of
 Gaussian, Inc. access to this program.  By using this program,
 the user acknowledges that Gaussian, Inc. is engaged in the
 business of creating and licensing software in the field of
 computational chemistry and represents and warrants to the
 licensee that it is not a competitor of Gaussian, Inc. and that
 it will not use this program in any manner prohibited above.
 ---------------------------------------------------------------
  

 Cite this work as:
 Gaussian 09, Revision D.01,
 M. J. Frisch, G. W. Trucks, H. B. Schlegel, G. E. Scuseria, 
 M. A. Robb, J. R. Cheeseman, G. Scalmani, V. Barone, B. Mennucci, 
 G. A. Petersson, H. Nakatsuji, M. Caricato, X. Li, H. P. Hratchian, 
 A. F. Izmaylov, J. Bloino, G. Zheng, J. L. Sonnenberg, M. Hada, 
 M. Ehara, K. Toyota, R. Fukuda, J. Hasegawa, M. Ishida, T. Nakajima, 
 Y. Honda, O. Kitao, H. Nakai, T. Vreven, J. A. Montgomery, Jr., 
 J. E. Peralta, F. Ogliaro, M. Bearpark, J. J. Heyd, E. Brothers, 
 K. N. Kudin, V. N. Staroverov, T. Keith, R. Kobayashi, J. Normand, 
 K. Raghavachari, A. Rendell, J. C. Burant, S. S. Iyengar, J. Tomasi, 
 M. Cossi, N. Rega, J. M. Millam, M. Klene, J. E. Knox, J. B. Cross, 
 V. Bakken, C. Adamo, J. Jaramillo, R. Gomperts, R. E. Stratmann, 
 O. Yazyev, A. J. Austin, R. Cammi, C. Pomelli, J. W. Ochterski, 
 R. L. Martin, K. Morokuma, V. G. Zakrzewski, G. A. Voth, 
 P. Salvador, J. J. Dannenberg, S. Dapprich, A. D. Daniels, 
 O. Farkas, J. B. Foresman, J. V. Ortiz, J. Cioslowski, 
 and D. J. Fox, Gaussian, Inc., Wallingford CT, 2013.
 
 ******************************************
 Gaussian 09:  ES64L-G09RevD.01 24-Apr-2013
                20-May-2017 
 ******************************************
 %chk=check.chk
 %mem=1500mb
 %nproc=32
 Will use up to   32 processors via shared memory.
 -------------------------
 # opt freq um062x/cc-pvtz
 -------------------------
 1/14=-1,18=20,19=15,26=3,38=1/1,3;
 2/9=110,12=2,17=6,18=5,40=1/2;
 3/5=16,6=1,11=2,16=1,25=1,30=1,71=1,74=-55,116=2/1,2,3;
 4//1;
 5/5=2,38=5/2;
 6/7=2,8=2,9=2,10=2,28=1/1;
 7//1,2,3,16;
 1/14=-1,18=20,19=15,26=3/3(2);
 2/9=110/2;
 99//99;
 2/9=110/2;
 3/5=16,6=1,11=2,16=1,25=1,30=1,71=1,74=-55,116=2/1,2,3;
 4/5=5,16=3,69=1/1;
 5/5=2,38=5/2;
 7//1,2,3,16;
 1/14=-1,18=20,19=15,26=3/3(-5);
 2/9=110/2;
 6/7=2,8=2,9=2,10=2,19=2,28=1/1;
 99/9=1/99;
 ----------------------------------------------------------------------
 InChI=1S_slash_C10H12_slash_c1-3-7-8(4-1)10-6-2-5-9(7)10_slash_h1-3,6-
 10H,4-5H2
 ----------------------------------------------------------------------
 Symbolic Z-matrix:
 Charge =  0 Multiplicity = 1
 C                     2.2533    0.3102    1.0448 
 C                     1.3738    1.2878    0.8636 
 C                     0.6294    1.1219   -0.4205 
 C                     0.9831   -0.3085   -0.8836 
 C                     2.2171   -0.7022   -0.0561 
 C                    -0.3582   -0.7823   -0.2914 
 C                    -1.6522   -1.4069   -0.6654 
 C                    -2.6102   -0.7023   -0.0261 
 C                    -2.0436    0.5834    0.5622 
 C                    -0.8177    0.6672   -0.3233 
 H                     2.9323    0.2662    1.8899 
 H                     1.2509    2.1246    1.5428 
 H                     0.8446    1.9066   -1.1792 
 H                     1.0685   -0.4355   -1.9857 
 H                     3.1366   -0.6116   -0.6722 
 H                     2.1319   -1.7336    0.348 
 H                    -0.1553   -1.1286    0.7556 
 H                    -1.7973   -2.3499   -1.181 
 H                    -3.6609   -0.9718   -0.0259 
 H                    -1.7798    0.4613    1.6357 
 H                    -2.7277    1.4437    0.4021 
 H                    -1.2186    0.9602   -1.3344 
 

 GradGradGradGradGradGradGradGradGradGradGradGradGradGradGradGradGradGrad
 Berny optimization.
 Initialization pass.
                           ----------------------------
                           !    Initial Parameters    !
                           ! (Angstroms and Degrees)  !
 --------------------------                            --------------------------
 ! Name  Definition              Value          Derivative Info.                !
 --------------------------------------------------------------------------------
 ! R1    R(1,2)                  1.3274         estimate D2E/DX2                !
 ! R2    R(1,5)                  1.4961         estimate D2E/DX2                !
 ! R3    R(1,11)                 1.085          estimate D2E/DX2                !
 ! R4    R(2,3)                  1.4935         estimate D2E/DX2                !
 ! R5    R(2,12)                 1.0847         estimate D2E/DX2                !
 ! R6    R(3,4)                  1.5445         estimate D2E/DX2                !
 ! R7    R(3,10)                 1.52           estimate D2E/DX2                !
 ! R8    R(3,13)                 1.1125         estimate D2E/DX2                !
 ! R9    R(4,5)                  1.537          estimate D2E/DX2                !
 ! R10   R(4,6)                  1.5409         estimate D2E/DX2                !
 ! R11   R(4,14)                 1.1127         estimate D2E/DX2                !
 ! R12   R(5,15)                 1.1105         estimate D2E/DX2                !
 ! R13   R(5,16)                 1.111          estimate D2E/DX2                !
 ! R14   R(6,7)                  1.4847         estimate D2E/DX2                !
 ! R15   R(6,10)                 1.5209         estimate D2E/DX2                !
 ! R16   R(6,17)                 1.1213         estimate D2E/DX2                !
 ! R17   R(7,8)                  1.3502         estimate D2E/DX2                !
 ! R18   R(7,18)                 1.0845         estimate D2E/DX2                !
 ! R19   R(8,9)                  1.5232         estimate D2E/DX2                !
 ! R20   R(8,19)                 1.0847         estimate D2E/DX2                !
 ! R21   R(9,10)                 1.5146         estimate D2E/DX2                !
 ! R22   R(9,20)                 1.1122         estimate D2E/DX2                !
 ! R23   R(9,21)                 1.1107         estimate D2E/DX2                !
 ! R24   R(10,22)                1.1265         estimate D2E/DX2                !
 ! A1    A(2,1,5)              112.4506         estimate D2E/DX2                !
 ! A2    A(2,1,11)             123.4244         estimate D2E/DX2                !
 ! A3    A(5,1,11)             124.1159         estimate D2E/DX2                !
 ! A4    A(1,2,3)              111.4565         estimate D2E/DX2                !
 ! A5    A(1,2,12)             123.8988         estimate D2E/DX2                !
 ! A6    A(3,2,12)             124.581          estimate D2E/DX2                !
 ! A7    A(2,3,4)              104.2719         estimate D2E/DX2                !
 ! A8    A(2,3,10)             116.922          estimate D2E/DX2                !
 ! A9    A(2,3,13)             114.3045         estimate D2E/DX2                !
 ! A10   A(4,3,10)              87.7162         estimate D2E/DX2                !
 ! A11   A(4,3,13)             113.8562         estimate D2E/DX2                !
 ! A12   A(10,3,13)            116.0258         estimate D2E/DX2                !
 ! A13   A(3,4,5)              105.0488         estimate D2E/DX2                !
 ! A14   A(3,4,6)               88.2918         estimate D2E/DX2                !
 ! A15   A(3,4,14)             114.8511         estimate D2E/DX2                !
 ! A16   A(5,4,6)              114.4051         estimate D2E/DX2                !
 ! A17   A(5,4,14)             116.257          estimate D2E/DX2                !
 ! A18   A(6,4,14)             114.3551         estimate D2E/DX2                !
 ! A19   A(1,5,4)              104.0199         estimate D2E/DX2                !
 ! A20   A(1,5,15)             109.4509         estimate D2E/DX2                !
 ! A21   A(1,5,16)             111.249          estimate D2E/DX2                !
 ! A22   A(4,5,15)             110.1918         estimate D2E/DX2                !
 ! A23   A(4,5,16)             111.8413         estimate D2E/DX2                !
 ! A24   A(15,5,16)            109.939          estimate D2E/DX2                !
 ! A25   A(4,6,7)              142.2979         estimate D2E/DX2                !
 ! A26   A(4,6,10)              87.8153         estimate D2E/DX2                !
 ! A27   A(4,6,17)             107.2363         estimate D2E/DX2                !
 ! A28   A(7,6,10)              97.6045         estimate D2E/DX2                !
 ! A29   A(7,6,17)             105.2475         estimate D2E/DX2                !
 ! A30   A(10,6,17)            111.6287         estimate D2E/DX2                !
 ! A31   A(6,7,8)              106.2353         estimate D2E/DX2                !
 ! A32   A(6,7,18)             127.0245         estimate D2E/DX2                !
 ! A33   A(8,7,18)             125.7291         estimate D2E/DX2                !
 ! A34   A(7,8,9)              111.0654         estimate D2E/DX2                !
 ! A35   A(7,8,19)             123.8987         estimate D2E/DX2                !
 ! A36   A(9,8,19)             124.7472         estimate D2E/DX2                !
 ! A37   A(8,9,10)              97.006          estimate D2E/DX2                !
 ! A38   A(8,9,20)             111.6147         estimate D2E/DX2                !
 ! A39   A(8,9,21)             111.6534         estimate D2E/DX2                !
 ! A40   A(10,9,20)            112.2355         estimate D2E/DX2                !
 ! A41   A(10,9,21)            111.8008         estimate D2E/DX2                !
 ! A42   A(20,9,21)            111.731          estimate D2E/DX2                !
 ! A43   A(3,10,6)              89.9317         estimate D2E/DX2                !
 ! A44   A(3,10,9)             145.5413         estimate D2E/DX2                !
 ! A45   A(3,10,22)            101.7489         estimate D2E/DX2                !
 ! A46   A(6,10,9)             100.3431         estimate D2E/DX2                !
 ! A47   A(6,10,22)            111.9776         estimate D2E/DX2                !
 ! A48   A(9,10,22)            104.5432         estimate D2E/DX2                !
 ! D1    D(5,1,2,3)             -2.0567         estimate D2E/DX2                !
 ! D2    D(5,1,2,12)          -179.2677         estimate D2E/DX2                !
 ! D3    D(11,1,2,3)           176.8875         estimate D2E/DX2                !
 ! D4    D(11,1,2,12)           -0.3235         estimate D2E/DX2                !
 ! D5    D(2,1,5,4)             -8.6096         estimate D2E/DX2                !
 ! D6    D(2,1,5,15)           109.1315         estimate D2E/DX2                !
 ! D7    D(2,1,5,16)          -129.1754         estimate D2E/DX2                !
 ! D8    D(11,1,5,4)           172.4547         estimate D2E/DX2                !
 ! D9    D(11,1,5,15)          -69.8042         estimate D2E/DX2                !
 ! D10   D(11,1,5,16)           51.8889         estimate D2E/DX2                !
 ! D11   D(1,2,3,4)             11.7678         estimate D2E/DX2                !
 ! D12   D(1,2,3,10)           106.5322         estimate D2E/DX2                !
 ! D13   D(1,2,3,13)          -113.1768         estimate D2E/DX2                !
 ! D14   D(12,2,3,4)          -171.0439         estimate D2E/DX2                !
 ! D15   D(12,2,3,10)          -76.2795         estimate D2E/DX2                !
 ! D16   D(12,2,3,13)           64.0115         estimate D2E/DX2                !
 ! D17   D(2,3,4,5)            -16.232          estimate D2E/DX2                !
 ! D18   D(2,3,4,6)             98.6046         estimate D2E/DX2                !
 ! D19   D(2,3,4,14)          -145.2364         estimate D2E/DX2                !
 ! D20   D(10,3,4,5)          -133.4529         estimate D2E/DX2                !
 ! D21   D(10,3,4,6)           -18.6163         estimate D2E/DX2                !
 ! D22   D(10,3,4,14)           97.5427         estimate D2E/DX2                !
 ! D23   D(13,3,4,5)           108.9978         estimate D2E/DX2                !
 ! D24   D(13,3,4,6)          -136.1656         estimate D2E/DX2                !
 ! D25   D(13,3,4,14)          -20.0066         estimate D2E/DX2                !
 ! D26   D(2,3,10,6)           -85.9989         estimate D2E/DX2                !
 ! D27   D(2,3,10,9)            22.3969         estimate D2E/DX2                !
 ! D28   D(2,3,10,22)          161.5432         estimate D2E/DX2                !
 ! D29   D(4,3,10,6)            18.8609         estimate D2E/DX2                !
 ! D30   D(4,3,10,9)           127.2568         estimate D2E/DX2                !
 ! D31   D(4,3,10,22)          -93.597          estimate D2E/DX2                !
 ! D32   D(13,3,10,6)          134.3899         estimate D2E/DX2                !
 ! D33   D(13,3,10,9)         -117.2142         estimate D2E/DX2                !
 ! D34   D(13,3,10,22)          21.932          estimate D2E/DX2                !
 ! D35   D(3,4,5,1)             15.0768         estimate D2E/DX2                !
 ! D36   D(3,4,5,15)          -102.1509         estimate D2E/DX2                !
 ! D37   D(3,4,5,16)           135.2435         estimate D2E/DX2                !
 ! D38   D(6,4,5,1)            -79.9772         estimate D2E/DX2                !
 ! D39   D(6,4,5,15)           162.7951         estimate D2E/DX2                !
 ! D40   D(6,4,5,16)            40.1894         estimate D2E/DX2                !
 ! D41   D(14,4,5,1)           143.2386         estimate D2E/DX2                !
 ! D42   D(14,4,5,15)           26.0109         estimate D2E/DX2                !
 ! D43   D(14,4,5,16)          -96.5948         estimate D2E/DX2                !
 ! D44   D(3,4,6,7)            118.2276         estimate D2E/DX2                !
 ! D45   D(3,4,6,10)            18.6029         estimate D2E/DX2                !
 ! D46   D(3,4,6,17)           -93.3823         estimate D2E/DX2                !
 ! D47   D(5,4,6,7)           -136.0061         estimate D2E/DX2                !
 ! D48   D(5,4,6,10)           124.3692         estimate D2E/DX2                !
 ! D49   D(5,4,6,17)            12.384          estimate D2E/DX2                !
 ! D50   D(14,4,6,7)             1.6108         estimate D2E/DX2                !
 ! D51   D(14,4,6,10)          -98.0138         estimate D2E/DX2                !
 ! D52   D(14,4,6,17)          150.001          estimate D2E/DX2                !
 ! D53   D(4,6,7,8)           -135.3826         estimate D2E/DX2                !
 ! D54   D(4,6,7,18)            55.6759         estimate D2E/DX2                !
 ! D55   D(10,6,7,8)           -39.0765         estimate D2E/DX2                !
 ! D56   D(10,6,7,18)          151.9821         estimate D2E/DX2                !
 ! D57   D(17,6,7,8)            75.8731         estimate D2E/DX2                !
 ! D58   D(17,6,7,18)          -93.0684         estimate D2E/DX2                !
 ! D59   D(4,6,10,3)           -18.9063         estimate D2E/DX2                !
 ! D60   D(4,6,10,9)          -165.8292         estimate D2E/DX2                !
 ! D61   D(4,6,10,22)           83.7498         estimate D2E/DX2                !
 ! D62   D(7,6,10,3)          -161.4398         estimate D2E/DX2                !
 ! D63   D(7,6,10,9)            51.6373         estimate D2E/DX2                !
 ! D64   D(7,6,10,22)          -58.7837         estimate D2E/DX2                !
 ! D65   D(17,6,10,3)           88.7835         estimate D2E/DX2                !
 ! D66   D(17,6,10,9)          -58.1395         estimate D2E/DX2                !
 ! D67   D(17,6,10,22)        -168.5604         estimate D2E/DX2                !
 ! D68   D(6,7,8,9)             11.7885         estimate D2E/DX2                !
 ! D69   D(6,7,8,19)          -174.1329         estimate D2E/DX2                !
 ! D70   D(18,7,8,9)          -179.0851         estimate D2E/DX2                !
 ! D71   D(18,7,8,19)           -5.0065         estimate D2E/DX2                !
 ! D72   D(7,8,9,10)            20.7537         estimate D2E/DX2                !
 ! D73   D(7,8,9,20)           -96.5554         estimate D2E/DX2                !
 ! D74   D(7,8,9,21)           137.5855         estimate D2E/DX2                !
 ! D75   D(19,8,9,10)         -153.2645         estimate D2E/DX2                !
 ! D76   D(19,8,9,20)           89.4264         estimate D2E/DX2                !
 ! D77   D(19,8,9,21)          -36.4327         estimate D2E/DX2                !
 ! D78   D(8,9,10,3)          -149.0015         estimate D2E/DX2                !
 ! D79   D(8,9,10,6)           -43.7047         estimate D2E/DX2                !
 ! D80   D(8,9,10,22)           72.4224         estimate D2E/DX2                !
 ! D81   D(20,9,10,3)          -32.1815         estimate D2E/DX2                !
 ! D82   D(20,9,10,6)           73.1154         estimate D2E/DX2                !
 ! D83   D(20,9,10,22)        -170.7575         estimate D2E/DX2                !
 ! D84   D(21,9,10,3)           94.2831         estimate D2E/DX2                !
 ! D85   D(21,9,10,6)         -160.4201         estimate D2E/DX2                !
 ! D86   D(21,9,10,22)         -44.2929         estimate D2E/DX2                !
 --------------------------------------------------------------------------------
 Trust Radius=3.00D-01 FncErr=1.00D-07 GrdErr=1.00D-06
 Number of steps in this run=    132 maximum allowed number of steps=    132.
 GradGradGradGradGradGradGradGradGradGradGradGradGradGradGradGradGradGrad

                          Input orientation:                          
 ---------------------------------------------------------------------
 Center     Atomic      Atomic             Coordinates (Angstroms)
 Number     Number       Type             X           Y           Z
 ---------------------------------------------------------------------
      1          6           0        2.253300    0.310200    1.044800
      2          6           0        1.373800    1.287800    0.863600
      3          6           0        0.629400    1.121900   -0.420500
      4          6           0        0.983100   -0.308500   -0.883600
      5          6           0        2.217100   -0.702200   -0.056100
      6          6           0       -0.358200   -0.782300   -0.291400
      7          6           0       -1.652200   -1.406900   -0.665400
      8          6           0       -2.610200   -0.702300   -0.026100
      9          6           0       -2.043600    0.583400    0.562200
     10          6           0       -0.817700    0.667200   -0.323300
     11          1           0        2.932300    0.266200    1.889900
     12          1           0        1.250900    2.124600    1.542800
     13          1           0        0.844600    1.906600   -1.179200
     14          1           0        1.068500   -0.435500   -1.985700
     15          1           0        3.136600   -0.611600   -0.672200
     16          1           0        2.131900   -1.733600    0.348000
     17          1           0       -0.155300   -1.128600    0.755600
     18          1           0       -1.797300   -2.349900   -1.181000
     19          1           0       -3.660900   -0.971800   -0.025900
     20          1           0       -1.779800    0.461300    1.635700
     21          1           0       -2.727700    1.443700    0.402100
     22          1           0       -1.218600    0.960200   -1.334400
 ---------------------------------------------------------------------
                    Distance matrix (angstroms):
                    1          2          3          4          5
     1  C    0.000000
     2  C    1.327424   0.000000
     3  C    2.333026   1.493508   0.000000
     4  C    2.390591   2.398651   1.544542   0.000000
     5  C    1.496077   2.348851   2.445592   1.537046   0.000000
     6  C    3.130322   2.935841   2.148953   1.540868   2.587267
     7  C    4.596319   4.330811   3.414748   2.863372   3.979866
     8  C    5.081891   4.541401   3.738752   3.715130   4.827393
     9  C    4.332539   3.502234   2.898381   3.470841   4.493176
    10  C    3.380856   2.568375   1.519967   2.123395   3.340159
    11  H    1.084975   2.127412   3.372465   3.438308   2.288280
    12  H    2.131867   1.084736   2.290462   3.446608   3.388336
    13  H    3.078815   2.199090   1.112516   2.239024   3.154512
    14  H    3.338226   3.343872   2.251256   1.112675   2.261364
    15  H    2.139632   3.012286   3.058501   2.184976   1.110526
    16  H    2.162727   3.157438   3.316923   2.206239   1.111009
    17  H    2.820485   2.861608   2.657765   2.157660   2.543414
    18  H    5.332699   5.241100   4.303560   3.462136   4.482825
    19  H    6.145542   5.589741   4.790194   4.768894   5.884257
    20  H    4.078957   3.350289   3.235521   3.817470   4.493454
    21  H    5.148616   4.130326   3.471361   4.300380   5.409795
    22  H    4.258777   3.414537   2.067961   2.580756   4.025128
                    6          7          8          9         10
     6  C    0.000000
     7  C    1.484735   0.000000
     8  C    2.268984   1.350159   0.000000
     9  C    2.331168   2.370968   1.523206   0.000000
    10  C    1.520923   2.261706   2.275283   1.514584   0.000000
    11  H    4.084705   5.508762   5.943766   5.159746   4.372820
    12  H    3.795202   5.076970   5.035961   3.767042   3.144114
    13  H    3.076540   4.180584   4.480139   3.622849   2.243194
    14  H    2.241962   3.176322   4.176607   4.149111   2.745409
    15  H    3.519627   4.854395   5.783717   5.457677   4.170557
    16  H    2.741241   3.931046   4.867345   4.780081   3.861946
    17  H    1.121294   2.082643   2.611383   2.556174   2.197202
    18  H    2.306462   1.084503   2.170066   3.421061   3.286055
    19  H    3.318769   2.152475   1.084712   2.319519   3.295232
    20  H    2.698370   2.966735   2.192056   1.112161   2.192193
    21  H    3.324237   3.228340   2.191456   1.110739   2.185694
    22  H    2.205548   2.497745   2.532214   2.102307   1.126452
                   11         12         13         14         15
    11  H    0.000000
    12  H    2.530066   0.000000
    13  H    4.058174   2.760777   0.000000
    14  H    4.357340   4.363221   2.487168   0.000000
    15  H    2.715995   3.993605   3.442622   2.456284   0.000000
    16  H    2.649018   4.133935   4.152173   2.874376   1.819097
    17  H    3.572867   3.630481   3.735732   3.081039   3.625260
    18  H    6.216391   6.060673   5.009734   3.539107   5.255848
    19  H    6.976620   6.014507   5.469444   5.147393   6.837650
    20  H    4.722983   3.458372   4.110965   4.693783   5.536109
    21  H    5.969561   4.194530   3.933969   4.862522   6.306219
    22  H    5.301671   3.966426   2.275204   2.757353   4.677267
                   16         17         18         19         20
    16  H    0.000000
    17  H    2.400718   0.000000
    18  H    4.261019   2.817474   0.000000
    19  H    5.854628   3.595074   2.589676   0.000000
    20  H    4.666600   2.437490   3.979567   2.890195   0.000000
    21  H    5.806365   3.654987   4.214647   2.624631   1.839944
    22  H    4.616587   3.140349   3.363805   3.377814   3.063550
                   21         22
    21  H    0.000000
    22  H    2.350869   0.000000
 Stoichiometry    C10H12
 Framework group  C1[X(C10H12)]
 Deg. of freedom    60
 Full point group                 C1      NOp   1
 Largest Abelian subgroup         C1      NOp   1
 Largest concise Abelian subgroup C1      NOp   1
                         Standard orientation:                         
 ---------------------------------------------------------------------
 Center     Atomic      Atomic             Coordinates (Angstroms)
 Number     Number       Type             X           Y           Z
 ---------------------------------------------------------------------
      1          6           0       -2.381265    0.277498   -0.742519
      2          6           0       -1.662450    1.231761   -0.163950
      3          6           0       -0.757633    0.674021    0.885240
      4          6           0       -0.811605   -0.853331    0.661873
      5          6           0       -2.049658   -1.084294   -0.219258
      6          6           0        0.512545   -0.739644   -0.117855
      7          6           0        1.927086   -1.190516   -0.102835
      8          6           0        2.673662   -0.100590   -0.381433
      9          6           0        1.836218    1.169700   -0.309269
     10          6           0        0.724056    0.609065    0.552560
     11          1           0       -3.136316    0.472297   -1.496921
     12          1           0       -1.760268    2.287085   -0.394980
     13          1           0       -1.011845    0.986350    1.922312
     14          1           0       -0.746810   -1.464176    1.589621
     15          1           0       -2.894031   -1.459447    0.396829
     16          1           0       -1.840606   -1.794165   -1.047946
     17          1           0        0.250866   -0.625665   -1.202214
     18          1           0        2.286178   -2.213414   -0.073180
     19          1           0        3.747469   -0.125408   -0.532833
     20          1           0        1.474402    1.479511   -1.314260
     21          1           0        2.380859    1.991111    0.202973
     22          1           0        1.184370    0.503902    1.575275
 ---------------------------------------------------------------------
 Rotational constants (GHZ):      3.1046784      1.1305704      0.9722843
 Standard basis: CC-pVTZ (5D, 7F)
 There are   530 symmetry adapted cartesian basis functions of A   symmetry.
 There are   468 symmetry adapted basis functions of A   symmetry.
   468 basis functions,   724 primitive gaussians,   530 cartesian basis functions
    36 alpha electrons       36 beta electrons
       nuclear repulsion energy       519.7099341811 Hartrees.
 NAtoms=   22 NActive=   22 NUniq=   22 SFac= 1.00D+00 NAtFMM=   60 NAOKFM=F Big=F
 Integral buffers will be    131072 words long.
 Raffenetti 2 integral format.
 Two-electron integral symmetry is turned on.
 One-electron integrals computed using PRISM.
 PrsmSu:  requested number of processors reduced to:  24 ShMem   1 Linda.
 NBasis=   468 RedAO= T EigKep=  8.65D-05  NBF=   468
 NBsUse=   468 1.00D-06 EigRej= -1.00D+00 NBFU=   468
 ExpMin= 1.03D-01 ExpMax= 8.24D+03 ExpMxC= 2.81D+02 IAcc=1 IRadAn=         1 AccDes= 0.00D+00
 Harris functional with IExCor= 1009 and IRadAn=       1 diagonalized for initial guess.
 HarFok:  IExCor= 1009 AccDes= 0.00D+00 IRadAn=         1 IDoV= 1 UseB2=F ITyADJ=14
 ICtDFT=  3500011 ScaDFX=  1.000000  1.000000  1.000000  1.000000
 FoFCou: FMM=F IPFlag=           0 FMFlag=      100000 FMFlg1=           0
         NFxFlg=           0 DoJE=T BraDBF=F KetDBF=T FulRan=T
         wScrn=  0.000000 ICntrl=     500 IOpCl=  0 I1Cent=   200000004 NGrid=           0
         NMat0=    1 NMatS0=      1 NMatT0=    0 NMatD0=    1 NMtDS0=    0 NMtDT0=    0
 Petite list used in FoFCou.
 Initial guess <Sx>= 0.0000 <Sy>= 0.0000 <Sz>= 0.0000 <S**2>= 0.0000 S= 0.0000
 Requested convergence on RMS density matrix=1.00D-08 within 128 cycles.
 Requested convergence on MAX density matrix=1.00D-06.
 Requested convergence on             energy=1.00D-06.
 No special actions if energy rises.
 Integral accuracy reduced to 1.0D-05 until final iterations.
 Initial convergence to 1.0D-05 achieved.  Increase integral accuracy.
 SCF Done:  E(UM062X) =  -388.120225579     A.U. after   14 cycles
            NFock= 14  Conv=0.47D-08     -V/T= 2.0062
 <Sx>= 0.0000 <Sy>= 0.0000 <Sz>= 0.0000 <S**2>= 0.0000 S= 0.0000
 <L.S>= 0.000000000000E+00
 Annihilation of the first spin contaminant:
 S**2 before annihilation     0.0000,   after     0.0000

 **********************************************************************

            Population analysis using the SCF density.

 **********************************************************************

 Orbital symmetries:
 Alpha Orbitals:
       Occupied  (A) (A) (A) (A) (A) (A) (A) (A) (A) (A) (A) (A)
                 (A) (A) (A) (A) (A) (A) (A) (A) (A) (A) (A) (A)
                 (A) (A) (A) (A) (A) (A) (A) (A) (A) (A) (A) (A)
       Virtual   (A) (A) (A) (A) (A) (A) (A) (A) (A) (A) (A) (A)
                 (A) (A) (A) (A) (A) (A) (A) (A) (A) (A) (A) (A)
                 (A) (A) (A) (A) (A) (A) (A) (A) (A) (A) (A) (A)
                 (A) (A) (A) (A) (A) (A) (A) (A) (A) (A) (A) (A)
                 (A) (A) (A) (A) (A) (A) (A) (A) (A) (A) (A) (A)
                 (A) (A) (A) (A) (A) (A) (A) (A) (A) (A) (A) (A)
                 (A) (A) (A) (A) (A) (A) (A) (A) (A) (A) (A) (A)
                 (A) (A) (A) (A) (A) (A) (A) (A) (A) (A) (A) (A)
                 (A) (A) (A) (A) (A) (A) (A) (A) (A) (A) (A) (A)
                 (A) (A) (A) (A) (A) (A) (A) (A) (A) (A) (A) (A)
                 (A) (A) (A) (A) (A) (A) (A) (A) (A) (A) (A) (A)
                 (A) (A) (A) (A) (A) (A) (A) (A) (A) (A) (A) (A)
                 (A) (A) (A) (A) (A) (A) (A) (A) (A) (A) (A) (A)
                 (A) (A) (A) (A) (A) (A) (A) (A) (A) (A) (A) (A)
                 (A) (A) (A) (A) (A) (A) (A) (A) (A) (A) (A) (A)
                 (A) (A) (A) (A) (A) (A) (A) (A) (A) (A) (A) (A)
                 (A) (A) (A) (A) (A) (A) (A) (A) (A) (A) (A) (A)
                 (A) (A) (A) (A) (A) (A) (A) (A) (A) (A) (A) (A)
                 (A) (A) (A) (A) (A) (A) (A) (A) (A) (A) (A) (A)
                 (A) (A) (A) (A) (A) (A) (A) (A) (A) (A) (A) (A)
                 (A) (A) (A) (A) (A) (A) (A) (A) (A) (A) (A) (A)
                 (A) (A) (A) (A) (A) (A) (A) (A) (A) (A) (A) (A)
                 (A) (A) (A) (A) (A) (A) (A) (A) (A) (A) (A) (A)
                 (A) (A) (A) (A) (A) (A) (A) (A) (A) (A) (A) (A)
                 (A) (A) (A) (A) (A) (A) (A) (A) (A) (A) (A) (A)
                 (A) (A) (A) (A) (A) (A) (A) (A) (A) (A) (A) (A)
                 (A) (A) (A) (A) (A) (A) (A) (A) (A) (A) (A) (A)
                 (A) (A) (A) (A) (A) (A) (A) (A) (A) (A) (A) (A)
                 (A) (A) (A) (A) (A) (A) (A) (A) (A) (A) (A) (A)
                 (A) (A) (A) (A) (A) (A) (A) (A) (A) (A) (A) (A)
                 (A) (A) (A) (A) (A) (A) (A) (A) (A) (A) (A) (A)
                 (A) (A) (A) (A) (A) (A) (A) (A) (A) (A) (A) (A)
                 (A) (A) (A) (A) (A) (A) (A) (A) (A) (A) (A) (A)
                 (A) (A) (A) (A) (A) (A) (A) (A) (A) (A) (A) (A)
                 (A) (A) (A) (A) (A) (A) (A) (A) (A) (A) (A) (A)
                 (A) (A) (A) (A) (A) (A) (A) (A) (A) (A) (A) (A)
 Beta  Orbitals:
       Occupied  (A) (A) (A) (A) (A) (A) (A) (A) (A) (A) (A) (A)
                 (A) (A) (A) (A) (A) (A) (A) (A) (A) (A) (A) (A)
                 (A) (A) (A) (A) (A) (A) (A) (A) (A) (A) (A) (A)
       Virtual   (A) (A) (A) (A) (A) (A) (A) (A) (A) (A) (A) (A)
                 (A) (A) (A) (A) (A) (A) (A) (A) (A) (A) (A) (A)
                 (A) (A) (A) (A) (A) (A) (A) (A) (A) (A) (A) (A)
                 (A) (A) (A) (A) (A) (A) (A) (A) (A) (A) (A) (A)
                 (A) (A) (A) (A) (A) (A) (A) (A) (A) (A) (A) (A)
                 (A) (A) (A) (A) (A) (A) (A) (A) (A) (A) (A) (A)
                 (A) (A) (A) (A) (A) (A) (A) (A) (A) (A) (A) (A)
                 (A) (A) (A) (A) (A) (A) (A) (A) (A) (A) (A) (A)
                 (A) (A) (A) (A) (A) (A) (A) (A) (A) (A) (A) (A)
                 (A) (A) (A) (A) (A) (A) (A) (A) (A) (A) (A) (A)
                 (A) (A) (A) (A) (A) (A) (A) (A) (A) (A) (A) (A)
                 (A) (A) (A) (A) (A) (A) (A) (A) (A) (A) (A) (A)
                 (A) (A) (A) (A) (A) (A) (A) (A) (A) (A) (A) (A)
                 (A) (A) (A) (A) (A) (A) (A) (A) (A) (A) (A) (A)
                 (A) (A) (A) (A) (A) (A) (A) (A) (A) (A) (A) (A)
                 (A) (A) (A) (A) (A) (A) (A) (A) (A) (A) (A) (A)
                 (A) (A) (A) (A) (A) (A) (A) (A) (A) (A) (A) (A)
                 (A) (A) (A) (A) (A) (A) (A) (A) (A) (A) (A) (A)
                 (A) (A) (A) (A) (A) (A) (A) (A) (A) (A) (A) (A)
                 (A) (A) (A) (A) (A) (A) (A) (A) (A) (A) (A) (A)
                 (A) (A) (A) (A) (A) (A) (A) (A) (A) (A) (A) (A)
                 (A) (A) (A) (A) (A) (A) (A) (A) (A) (A) (A) (A)
                 (A) (A) (A) (A) (A) (A) (A) (A) (A) (A) (A) (A)
                 (A) (A) (A) (A) (A) (A) (A) (A) (A) (A) (A) (A)
                 (A) (A) (A) (A) (A) (A) (A) (A) (A) (A) (A) (A)
                 (A) (A) (A) (A) (A) (A) (A) (A) (A) (A) (A) (A)
                 (A) (A) (A) (A) (A) (A) (A) (A) (A) (A) (A) (A)
                 (A) (A) (A) (A) (A) (A) (A) (A) (A) (A) (A) (A)
                 (A) (A) (A) (A) (A) (A) (A) (A) (A) (A) (A) (A)
                 (A) (A) (A) (A) (A) (A) (A) (A) (A) (A) (A) (A)
                 (A) (A) (A) (A) (A) (A) (A) (A) (A) (A) (A) (A)
                 (A) (A) (A) (A) (A) (A) (A) (A) (A) (A) (A) (A)
                 (A) (A) (A) (A) (A) (A) (A) (A) (A) (A) (A) (A)
                 (A) (A) (A) (A) (A) (A) (A) (A) (A) (A) (A) (A)
                 (A) (A) (A) (A) (A) (A) (A) (A) (A) (A) (A) (A)
                 (A) (A) (A) (A) (A) (A) (A) (A) (A) (A) (A) (A)
 The electronic state is 1-A.
 Alpha  occ. eigenvalues --  -10.54432 -10.54054 -10.53992 -10.53743 -10.53554
 Alpha  occ. eigenvalues --  -10.53370 -10.53255 -10.53158 -10.53074 -10.52870
 Alpha  occ. eigenvalues --   -1.00339  -0.93502  -0.85224  -0.81402  -0.78000
 Alpha  occ. eigenvalues --   -0.72889  -0.67418  -0.63542  -0.60845  -0.58794
 Alpha  occ. eigenvalues --   -0.56833  -0.55949  -0.51877  -0.49153  -0.47889
 Alpha  occ. eigenvalues --   -0.45589  -0.43986  -0.42550  -0.42083  -0.40575
 Alpha  occ. eigenvalues --   -0.39445  -0.38298  -0.35730  -0.31650  -0.30703
 Alpha  occ. eigenvalues --   -0.27718
 Alpha virt. eigenvalues --    0.04345   0.04966   0.07439   0.08153   0.09166
 Alpha virt. eigenvalues --    0.09968   0.11524   0.12109   0.12391   0.13435
 Alpha virt. eigenvalues --    0.13724   0.14513   0.15922   0.16934   0.17927
 Alpha virt. eigenvalues --    0.18836   0.21055   0.21576   0.22766   0.24552
 Alpha virt. eigenvalues --    0.25205   0.26227   0.27800   0.29231   0.31181
 Alpha virt. eigenvalues --    0.31472   0.32735   0.34024   0.35451   0.35519
 Alpha virt. eigenvalues --    0.36171   0.37992   0.39511   0.40333   0.40614
 Alpha virt. eigenvalues --    0.42083   0.42638   0.43407   0.44689   0.45465
 Alpha virt. eigenvalues --    0.45842   0.46469   0.46627   0.47126   0.47361
 Alpha virt. eigenvalues --    0.47975   0.48838   0.50078   0.50387   0.50740
 Alpha virt. eigenvalues --    0.51236   0.51486   0.51889   0.53049   0.53580
 Alpha virt. eigenvalues --    0.54813   0.55282   0.56102   0.57705   0.58149
 Alpha virt. eigenvalues --    0.58428   0.60956   0.62355   0.63059   0.63512
 Alpha virt. eigenvalues --    0.66780   0.67266   0.67910   0.69797   0.71153
 Alpha virt. eigenvalues --    0.72686   0.75463   0.77689   0.79078   0.82958
 Alpha virt. eigenvalues --    0.84026   0.86374   0.86677   0.88471   0.90247
 Alpha virt. eigenvalues --    0.90611   0.91379   0.94894   0.96015   0.96471
 Alpha virt. eigenvalues --    0.96722   0.97508   0.98145   0.99442   1.00201
 Alpha virt. eigenvalues --    1.01940   1.02696   1.03807   1.04049   1.05374
 Alpha virt. eigenvalues --    1.06475   1.09043   1.09339   1.10263   1.10660
 Alpha virt. eigenvalues --    1.12512   1.13179   1.13684   1.15240   1.15902
 Alpha virt. eigenvalues --    1.17141   1.17852   1.18228   1.19321   1.20607
 Alpha virt. eigenvalues --    1.21844   1.22220   1.23381   1.24211   1.25376
 Alpha virt. eigenvalues --    1.26549   1.26812   1.27599   1.28861   1.30396
 Alpha virt. eigenvalues --    1.31174   1.31829   1.32970   1.33398   1.35557
 Alpha virt. eigenvalues --    1.36352   1.37081   1.37646   1.37977   1.38993
 Alpha virt. eigenvalues --    1.40897   1.41460   1.41919   1.42956   1.44171
 Alpha virt. eigenvalues --    1.45114   1.45923   1.47255   1.48937   1.49647
 Alpha virt. eigenvalues --    1.50375   1.52129   1.53242   1.54510   1.55394
 Alpha virt. eigenvalues --    1.57261   1.58268   1.59773   1.61140   1.62633
 Alpha virt. eigenvalues --    1.65463   1.68297   1.69440   1.71495   1.73933
 Alpha virt. eigenvalues --    1.75809   1.77257   1.80659   1.84401   1.85671
 Alpha virt. eigenvalues --    1.88745   1.94231   2.00027   2.03734   2.19432
 Alpha virt. eigenvalues --    2.20043   2.23080   2.28148   2.29914   2.31459
 Alpha virt. eigenvalues --    2.34418   2.35339   2.36546   2.37812   2.40293
 Alpha virt. eigenvalues --    2.40625   2.42528   2.43318   2.45761   2.46919
 Alpha virt. eigenvalues --    2.50282   2.50930   2.52018   2.53650   2.54998
 Alpha virt. eigenvalues --    2.56842   2.57433   2.60259   2.60471   2.61744
 Alpha virt. eigenvalues --    2.63269   2.64170   2.64445   2.64800   2.68198
 Alpha virt. eigenvalues --    2.68756   2.71063   2.71449   2.72588   2.73558
 Alpha virt. eigenvalues --    2.73948   2.74391   2.75978   2.78017   2.79248
 Alpha virt. eigenvalues --    2.80082   2.80492   2.82123   2.84505   2.84911
 Alpha virt. eigenvalues --    2.85821   2.87205   2.88559   2.88808   2.90140
 Alpha virt. eigenvalues --    2.91523   2.91902   2.92836   2.93181   2.95246
 Alpha virt. eigenvalues --    2.96163   2.97183   2.98430   2.99546   2.99990
 Alpha virt. eigenvalues --    3.01796   3.03155   3.03621   3.03866   3.05531
 Alpha virt. eigenvalues --    3.06443   3.07776   3.08875   3.09713   3.10834
 Alpha virt. eigenvalues --    3.11380   3.13523   3.14004   3.14182   3.14916
 Alpha virt. eigenvalues --    3.15742   3.17425   3.18187   3.19235   3.20647
 Alpha virt. eigenvalues --    3.21658   3.22016   3.23423   3.24333   3.25254
 Alpha virt. eigenvalues --    3.26218   3.27948   3.28346   3.28658   3.29462
 Alpha virt. eigenvalues --    3.30302   3.31124   3.31664   3.34304   3.35267
 Alpha virt. eigenvalues --    3.36380   3.37645   3.38357   3.39568   3.39998
 Alpha virt. eigenvalues --    3.40790   3.41454   3.43556   3.44180   3.46095
 Alpha virt. eigenvalues --    3.47376   3.48235   3.49804   3.51571   3.52491
 Alpha virt. eigenvalues --    3.54519   3.54929   3.55899   3.57203   3.58061
 Alpha virt. eigenvalues --    3.59251   3.60118   3.61186   3.63006   3.64234
 Alpha virt. eigenvalues --    3.65021   3.67433   3.68012   3.68940   3.70624
 Alpha virt. eigenvalues --    3.71841   3.72621   3.73434   3.74095   3.75868
 Alpha virt. eigenvalues --    3.76496   3.79201   3.80464   3.81272   3.82903
 Alpha virt. eigenvalues --    3.83432   3.84103   3.85686   3.86172   3.87955
 Alpha virt. eigenvalues --    3.88586   3.90011   3.90725   3.91861   3.92804
 Alpha virt. eigenvalues --    3.93484   3.94265   3.95536   3.97818   3.98294
 Alpha virt. eigenvalues --    3.99270   4.00312   4.01337   4.02293   4.04186
 Alpha virt. eigenvalues --    4.04453   4.05518   4.06408   4.06971   4.08021
 Alpha virt. eigenvalues --    4.09924   4.10659   4.11180   4.11569   4.13306
 Alpha virt. eigenvalues --    4.15795   4.16278   4.16725   4.17527   4.17590
 Alpha virt. eigenvalues --    4.20351   4.22167   4.23161   4.25322   4.26868
 Alpha virt. eigenvalues --    4.28282   4.30887   4.32879   4.33538   4.34859
 Alpha virt. eigenvalues --    4.35850   4.37192   4.38973   4.39182   4.43446
 Alpha virt. eigenvalues --    4.44032   4.45138   4.46797   4.46931   4.47570
 Alpha virt. eigenvalues --    4.48734   4.51100   4.52035   4.52426   4.55877
 Alpha virt. eigenvalues --    4.59505   4.61277   4.61622   4.62528   4.63848
 Alpha virt. eigenvalues --    4.69064   4.70064   4.71697   4.73056   4.74736
 Alpha virt. eigenvalues --    4.77402   4.77818   4.81004   4.84676   4.85082
 Alpha virt. eigenvalues --    4.86725   4.89080   4.90533   4.92658   4.92957
 Alpha virt. eigenvalues --    4.93849   4.94595   4.96920   4.99871   5.00844
 Alpha virt. eigenvalues --    5.03141   5.04571   5.06926   5.07826   5.10159
 Alpha virt. eigenvalues --    5.12015   5.12739   5.16189   5.18407   5.19470
 Alpha virt. eigenvalues --    5.20065   5.22213   5.24104   5.28169   5.29679
 Alpha virt. eigenvalues --    5.30613   5.35064   5.37241   5.40289   5.40885
 Alpha virt. eigenvalues --    5.42876   5.44658   5.47477   5.52109   5.55690
 Alpha virt. eigenvalues --    5.61202   5.67825   5.73289   5.76226   5.78313
 Alpha virt. eigenvalues --    5.85307   5.88976   5.90976   5.94069   5.95306
 Alpha virt. eigenvalues --    6.04345   6.07048  10.25192  10.55035  11.52397
 Alpha virt. eigenvalues --   11.93079  12.38969  12.80860  12.90596  13.11459
 Alpha virt. eigenvalues --   13.76990  13.99089
  Beta  occ. eigenvalues --  -10.54432 -10.54054 -10.53992 -10.53743 -10.53554
  Beta  occ. eigenvalues --  -10.53370 -10.53255 -10.53158 -10.53074 -10.52870
  Beta  occ. eigenvalues --   -1.00339  -0.93502  -0.85224  -0.81402  -0.78000
  Beta  occ. eigenvalues --   -0.72889  -0.67418  -0.63542  -0.60845  -0.58794
  Beta  occ. eigenvalues --   -0.56833  -0.55949  -0.51877  -0.49153  -0.47889
  Beta  occ. eigenvalues --   -0.45589  -0.43986  -0.42550  -0.42083  -0.40575
  Beta  occ. eigenvalues --   -0.39445  -0.38298  -0.35730  -0.31650  -0.30703
  Beta  occ. eigenvalues --   -0.27718
  Beta virt. eigenvalues --    0.04345   0.04966   0.07439   0.08153   0.09166
  Beta virt. eigenvalues --    0.09968   0.11524   0.12109   0.12391   0.13435
  Beta virt. eigenvalues --    0.13724   0.14513   0.15922   0.16934   0.17927
  Beta virt. eigenvalues --    0.18836   0.21055   0.21576   0.22766   0.24552
  Beta virt. eigenvalues --    0.25205   0.26227   0.27800   0.29231   0.31181
  Beta virt. eigenvalues --    0.31472   0.32735   0.34024   0.35451   0.35519
  Beta virt. eigenvalues --    0.36171   0.37992   0.39511   0.40333   0.40614
  Beta virt. eigenvalues --    0.42083   0.42638   0.43407   0.44689   0.45465
  Beta virt. eigenvalues --    0.45842   0.46469   0.46627   0.47126   0.47361
  Beta virt. eigenvalues --    0.47975   0.48838   0.50078   0.50387   0.50740
  Beta virt. eigenvalues --    0.51236   0.51486   0.51889   0.53049   0.53580
  Beta virt. eigenvalues --    0.54813   0.55282   0.56102   0.57705   0.58149
  Beta virt. eigenvalues --    0.58428   0.60956   0.62355   0.63059   0.63512
  Beta virt. eigenvalues --    0.66780   0.67266   0.67910   0.69797   0.71153
  Beta virt. eigenvalues --    0.72686   0.75463   0.77689   0.79078   0.82958
  Beta virt. eigenvalues --    0.84026   0.86374   0.86677   0.88471   0.90247
  Beta virt. eigenvalues --    0.90611   0.91379   0.94894   0.96015   0.96471
  Beta virt. eigenvalues --    0.96722   0.97508   0.98145   0.99442   1.00201
  Beta virt. eigenvalues --    1.01940   1.02696   1.03807   1.04049   1.05374
  Beta virt. eigenvalues --    1.06475   1.09043   1.09339   1.10263   1.10660
  Beta virt. eigenvalues --    1.12512   1.13179   1.13684   1.15240   1.15902
  Beta virt. eigenvalues --    1.17141   1.17852   1.18228   1.19321   1.20607
  Beta virt. eigenvalues --    1.21844   1.22220   1.23381   1.24211   1.25376
  Beta virt. eigenvalues --    1.26549   1.26812   1.27599   1.28861   1.30396
  Beta virt. eigenvalues --    1.31174   1.31829   1.32970   1.33398   1.35557
  Beta virt. eigenvalues --    1.36352   1.37081   1.37646   1.37977   1.38993
  Beta virt. eigenvalues --    1.40897   1.41460   1.41919   1.42956   1.44171
  Beta virt. eigenvalues --    1.45114   1.45923   1.47255   1.48937   1.49647
  Beta virt. eigenvalues --    1.50375   1.52129   1.53242   1.54510   1.55394
  Beta virt. eigenvalues --    1.57261   1.58268   1.59773   1.61140   1.62633
  Beta virt. eigenvalues --    1.65463   1.68297   1.69440   1.71495   1.73933
  Beta virt. eigenvalues --    1.75809   1.77257   1.80659   1.84401   1.85671
  Beta virt. eigenvalues --    1.88745   1.94231   2.00027   2.03734   2.19432
  Beta virt. eigenvalues --    2.20043   2.23080   2.28148   2.29914   2.31459
  Beta virt. eigenvalues --    2.34418   2.35339   2.36546   2.37812   2.40293
  Beta virt. eigenvalues --    2.40625   2.42528   2.43318   2.45761   2.46919
  Beta virt. eigenvalues --    2.50282   2.50930   2.52018   2.53650   2.54998
  Beta virt. eigenvalues --    2.56842   2.57433   2.60259   2.60471   2.61744
  Beta virt. eigenvalues --    2.63269   2.64170   2.64445   2.64800   2.68198
  Beta virt. eigenvalues --    2.68756   2.71063   2.71449   2.72588   2.73558
  Beta virt. eigenvalues --    2.73948   2.74391   2.75978   2.78017   2.79248
  Beta virt. eigenvalues --    2.80082   2.80492   2.82123   2.84505   2.84911
  Beta virt. eigenvalues --    2.85821   2.87205   2.88559   2.88808   2.90140
  Beta virt. eigenvalues --    2.91523   2.91902   2.92836   2.93181   2.95246
  Beta virt. eigenvalues --    2.96163   2.97183   2.98430   2.99546   2.99990
  Beta virt. eigenvalues --    3.01796   3.03155   3.03621   3.03866   3.05531
  Beta virt. eigenvalues --    3.06443   3.07776   3.08875   3.09713   3.10834
  Beta virt. eigenvalues --    3.11380   3.13523   3.14004   3.14182   3.14916
  Beta virt. eigenvalues --    3.15742   3.17425   3.18187   3.19235   3.20647
  Beta virt. eigenvalues --    3.21658   3.22016   3.23423   3.24333   3.25254
  Beta virt. eigenvalues --    3.26218   3.27948   3.28346   3.28658   3.29462
  Beta virt. eigenvalues --    3.30302   3.31124   3.31664   3.34304   3.35267
  Beta virt. eigenvalues --    3.36380   3.37645   3.38357   3.39568   3.39998
  Beta virt. eigenvalues --    3.40790   3.41454   3.43556   3.44180   3.46095
  Beta virt. eigenvalues --    3.47376   3.48235   3.49804   3.51571   3.52491
  Beta virt. eigenvalues --    3.54519   3.54929   3.55899   3.57203   3.58061
  Beta virt. eigenvalues --    3.59251   3.60118   3.61186   3.63006   3.64234
  Beta virt. eigenvalues --    3.65021   3.67433   3.68012   3.68940   3.70624
  Beta virt. eigenvalues --    3.71841   3.72621   3.73434   3.74095   3.75868
  Beta virt. eigenvalues --    3.76496   3.79201   3.80464   3.81272   3.82903
  Beta virt. eigenvalues --    3.83432   3.84103   3.85686   3.86172   3.87955
  Beta virt. eigenvalues --    3.88586   3.90011   3.90725   3.91861   3.92804
  Beta virt. eigenvalues --    3.93484   3.94265   3.95536   3.97818   3.98294
  Beta virt. eigenvalues --    3.99270   4.00312   4.01337   4.02293   4.04186
  Beta virt. eigenvalues --    4.04453   4.05518   4.06408   4.06971   4.08021
  Beta virt. eigenvalues --    4.09924   4.10659   4.11180   4.11569   4.13306
  Beta virt. eigenvalues --    4.15795   4.16278   4.16725   4.17527   4.17590
  Beta virt. eigenvalues --    4.20351   4.22167   4.23161   4.25322   4.26868
  Beta virt. eigenvalues --    4.28282   4.30887   4.32879   4.33538   4.34859
  Beta virt. eigenvalues --    4.35850   4.37192   4.38973   4.39182   4.43446
  Beta virt. eigenvalues --    4.44032   4.45138   4.46797   4.46931   4.47570
  Beta virt. eigenvalues --    4.48734   4.51100   4.52035   4.52426   4.55877
  Beta virt. eigenvalues --    4.59505   4.61277   4.61622   4.62528   4.63848
  Beta virt. eigenvalues --    4.69064   4.70064   4.71697   4.73056   4.74736
  Beta virt. eigenvalues --    4.77402   4.77818   4.81004   4.84676   4.85082
  Beta virt. eigenvalues --    4.86725   4.89080   4.90533   4.92658   4.92957
  Beta virt. eigenvalues --    4.93849   4.94595   4.96920   4.99871   5.00844
  Beta virt. eigenvalues --    5.03141   5.04571   5.06926   5.07826   5.10159
  Beta virt. eigenvalues --    5.12015   5.12739   5.16189   5.18407   5.19470
  Beta virt. eigenvalues --    5.20065   5.22213   5.24104   5.28169   5.29679
  Beta virt. eigenvalues --    5.30613   5.35064   5.37241   5.40289   5.40885
  Beta virt. eigenvalues --    5.42876   5.44658   5.47477   5.52109   5.55690
  Beta virt. eigenvalues --    5.61202   5.67825   5.73289   5.76226   5.78313
  Beta virt. eigenvalues --    5.85307   5.88976   5.90976   5.94069   5.95306
  Beta virt. eigenvalues --    6.04345   6.07048  10.25192  10.55035  11.52397
  Beta virt. eigenvalues --   11.93079  12.38969  12.80860  12.90596  13.11459
  Beta virt. eigenvalues --   13.76990  13.99089
          Condensed to atoms (all electrons):
               1          2          3          4          5          6
     1  C    5.097950   0.606408  -0.103856  -0.071381   0.341143   0.005694
     2  C    0.606408   5.081631   0.357712  -0.075441  -0.091334   0.028820
     3  C   -0.103856   0.357712   5.068277   0.359825  -0.066019  -0.137304
     4  C   -0.071381  -0.075441   0.359825   5.206589   0.327348   0.223345
     5  C    0.341143  -0.091334  -0.066019   0.327348   5.018707  -0.041177
     6  C    0.005694   0.028820  -0.137304   0.223345  -0.041177   5.287479
     7  C    0.000269   0.001238   0.016072  -0.021804   0.001411   0.324516
     8  C    0.000081  -0.001545   0.013544   0.010124  -0.000534  -0.154953
     9  C   -0.000790  -0.001365  -0.027598   0.020085  -0.001477  -0.074744
    10  C    0.005890  -0.065077   0.303228  -0.129530   0.022103   0.279666
    11  H    0.403514  -0.052336   0.008211   0.007669  -0.038532  -0.000901
    12  H   -0.047801   0.399539  -0.038249   0.007374   0.006939  -0.001911
    13  H    0.001502  -0.032172   0.416445  -0.048796   0.004976   0.022038
    14  H    0.004714   0.006063  -0.039374   0.389520  -0.020655  -0.029803
    15  H   -0.049956   0.002164   0.003028  -0.040581   0.411169   0.009668
    16  H   -0.051968   0.000807   0.010457  -0.049692   0.423378  -0.005934
    17  H   -0.005314   0.003996   0.000010  -0.064234   0.001297   0.417863
    18  H    0.000012   0.000016  -0.000815  -0.001653   0.000188  -0.039966
    19  H   -0.000001   0.000007  -0.000200  -0.000217   0.000010   0.010187
    20  H    0.000001   0.004447  -0.003805  -0.000331   0.000002  -0.007363
    21  H    0.000048  -0.000125   0.001111  -0.001546   0.000047   0.014196
    22  H   -0.001172   0.010489  -0.055941  -0.004690   0.000271  -0.034213
               7          8          9         10         11         12
     1  C    0.000269   0.000081  -0.000790   0.005890   0.403514  -0.047801
     2  C    0.001238  -0.001545  -0.001365  -0.065077  -0.052336   0.399539
     3  C    0.016072   0.013544  -0.027598   0.303228   0.008211  -0.038249
     4  C   -0.021804   0.010124   0.020085  -0.129530   0.007669   0.007374
     5  C    0.001411  -0.000534  -0.001477   0.022103  -0.038532   0.006939
     6  C    0.324516  -0.154953  -0.074744   0.279666  -0.000901  -0.001911
     7  C    5.132785   0.647143  -0.057523  -0.093421   0.000003   0.000025
     8  C    0.647143   5.135150   0.351029  -0.123682  -0.000008  -0.000040
     9  C   -0.057523   0.351029   5.040156   0.310384  -0.000036   0.000786
    10  C   -0.093421  -0.123682   0.310384   5.272778  -0.000644   0.002185
    11  H    0.000003  -0.000008  -0.000036  -0.000644   0.552208  -0.005168
    12  H    0.000025  -0.000040   0.000786   0.002185  -0.005168   0.542703
    13  H   -0.001267  -0.000646   0.001775  -0.048055  -0.000393  -0.001306
    14  H   -0.001785   0.000116  -0.000906   0.009383  -0.000184  -0.000198
    15  H    0.000002   0.000013   0.000076  -0.002143  -0.000362  -0.000425
    16  H    0.000448  -0.000076   0.000121   0.000524  -0.001630  -0.000256
    17  H   -0.031202  -0.018492   0.004117  -0.037164  -0.000082   0.000215
    18  H    0.400287  -0.049124   0.005685   0.010185   0.000000  -0.000003
    19  H   -0.056920   0.403922  -0.039942   0.007951   0.000000   0.000002
    20  H    0.002388  -0.046730   0.413734  -0.043337   0.000048   0.000045
    21  H    0.003013  -0.049716   0.421867  -0.046113   0.000001  -0.000102
    22  H    0.005866  -0.014393  -0.026112   0.406164   0.000044  -0.000178
              13         14         15         16         17         18
     1  C    0.001502   0.004714  -0.049956  -0.051968  -0.005314   0.000012
     2  C   -0.032172   0.006063   0.002164   0.000807   0.003996   0.000016
     3  C    0.416445  -0.039374   0.003028   0.010457   0.000010  -0.000815
     4  C   -0.048796   0.389520  -0.040581  -0.049692  -0.064234  -0.001653
     5  C    0.004976  -0.020655   0.411169   0.423378   0.001297   0.000188
     6  C    0.022038  -0.029803   0.009668  -0.005934   0.417863  -0.039966
     7  C   -0.001267  -0.001785   0.000002   0.000448  -0.031202   0.400287
     8  C   -0.000646   0.000116   0.000013  -0.000076  -0.018492  -0.049124
     9  C    0.001775  -0.000906   0.000076   0.000121   0.004117   0.005685
    10  C   -0.048055   0.009383  -0.002143   0.000524  -0.037164   0.010185
    11  H   -0.000393  -0.000184  -0.000362  -0.001630  -0.000082   0.000000
    12  H   -0.001306  -0.000198  -0.000425  -0.000256   0.000215  -0.000003
    13  H    0.570903  -0.005655   0.001201  -0.000876  -0.000753   0.000059
    14  H   -0.005655   0.547320  -0.008277   0.001680   0.004406   0.001047
    15  H    0.001201  -0.008277   0.573694  -0.029312   0.000646  -0.000008
    16  H   -0.000876   0.001680  -0.029312   0.572869   0.001080  -0.000020
    17  H   -0.000753   0.004406   0.000646   0.001080   0.550988   0.002792
    18  H    0.000059   0.001047  -0.000008  -0.000020   0.002792   0.552142
    19  H   -0.000002  -0.000019   0.000000   0.000006  -0.000694  -0.004772
    20  H   -0.000276  -0.000008   0.000012  -0.000023   0.007067  -0.000406
    21  H    0.000612   0.000077  -0.000003  -0.000005  -0.000234  -0.000021
    22  H   -0.013420   0.000893   0.000091  -0.000027   0.007786   0.000772
              19         20         21         22
     1  C   -0.000001   0.000001   0.000048  -0.001172
     2  C    0.000007   0.004447  -0.000125   0.010489
     3  C   -0.000200  -0.003805   0.001111  -0.055941
     4  C   -0.000217  -0.000331  -0.001546  -0.004690
     5  C    0.000010   0.000002   0.000047   0.000271
     6  C    0.010187  -0.007363   0.014196  -0.034213
     7  C   -0.056920   0.002388   0.003013   0.005866
     8  C    0.403922  -0.046730  -0.049716  -0.014393
     9  C   -0.039942   0.413734   0.421867  -0.026112
    10  C    0.007951  -0.043337  -0.046113   0.406164
    11  H    0.000000   0.000048   0.000001   0.000044
    12  H    0.000002   0.000045  -0.000102  -0.000178
    13  H   -0.000002  -0.000276   0.000612  -0.013420
    14  H   -0.000019  -0.000008   0.000077   0.000893
    15  H    0.000000   0.000012  -0.000003   0.000091
    16  H    0.000006  -0.000023  -0.000005  -0.000027
    17  H   -0.000694   0.007067  -0.000234   0.007786
    18  H   -0.004772  -0.000406  -0.000021   0.000772
    19  H    0.547521   0.000418  -0.002479  -0.000528
    20  H    0.000418   0.553513  -0.028054   0.008438
    21  H   -0.002479  -0.028054   0.587053  -0.009917
    22  H   -0.000528   0.008438  -0.009917   0.589992
          Atomic-Atomic Spin Densities.
               1          2          3          4          5          6
     1  C    0.000000   0.000000   0.000000   0.000000   0.000000   0.000000
     2  C    0.000000   0.000000   0.000000   0.000000   0.000000   0.000000
     3  C    0.000000   0.000000   0.000000   0.000000   0.000000   0.000000
     4  C    0.000000   0.000000   0.000000   0.000000   0.000000   0.000000
     5  C    0.000000   0.000000   0.000000   0.000000   0.000000   0.000000
     6  C    0.000000   0.000000   0.000000   0.000000   0.000000   0.000000
     7  C    0.000000   0.000000   0.000000   0.000000   0.000000   0.000000
     8  C    0.000000   0.000000   0.000000   0.000000   0.000000   0.000000
     9  C    0.000000   0.000000   0.000000   0.000000   0.000000   0.000000
    10  C    0.000000   0.000000   0.000000   0.000000   0.000000   0.000000
    11  H    0.000000   0.000000   0.000000   0.000000   0.000000   0.000000
    12  H    0.000000   0.000000   0.000000   0.000000   0.000000   0.000000
    13  H    0.000000   0.000000   0.000000   0.000000   0.000000   0.000000
    14  H    0.000000   0.000000   0.000000   0.000000   0.000000   0.000000
    15  H    0.000000   0.000000   0.000000   0.000000   0.000000   0.000000
    16  H    0.000000   0.000000   0.000000   0.000000   0.000000   0.000000
    17  H    0.000000   0.000000   0.000000   0.000000   0.000000   0.000000
    18  H    0.000000   0.000000   0.000000   0.000000   0.000000   0.000000
    19  H    0.000000   0.000000   0.000000   0.000000   0.000000   0.000000
    20  H    0.000000   0.000000   0.000000   0.000000   0.000000   0.000000
    21  H    0.000000   0.000000   0.000000   0.000000   0.000000   0.000000
    22  H    0.000000   0.000000   0.000000   0.000000   0.000000   0.000000
               7          8          9         10         11         12
     1  C    0.000000   0.000000   0.000000   0.000000   0.000000   0.000000
     2  C    0.000000   0.000000   0.000000   0.000000   0.000000   0.000000
     3  C    0.000000   0.000000   0.000000   0.000000   0.000000   0.000000
     4  C    0.000000   0.000000   0.000000   0.000000   0.000000   0.000000
     5  C    0.000000   0.000000   0.000000   0.000000   0.000000   0.000000
     6  C    0.000000   0.000000   0.000000   0.000000   0.000000   0.000000
     7  C    0.000000   0.000000   0.000000   0.000000   0.000000   0.000000
     8  C    0.000000   0.000000   0.000000   0.000000   0.000000   0.000000
     9  C    0.000000   0.000000   0.000000   0.000000   0.000000   0.000000
    10  C    0.000000   0.000000   0.000000   0.000000   0.000000   0.000000
    11  H    0.000000   0.000000   0.000000   0.000000   0.000000   0.000000
    12  H    0.000000   0.000000   0.000000   0.000000   0.000000   0.000000
    13  H    0.000000   0.000000   0.000000   0.000000   0.000000   0.000000
    14  H    0.000000   0.000000   0.000000   0.000000   0.000000   0.000000
    15  H    0.000000   0.000000   0.000000   0.000000   0.000000   0.000000
    16  H    0.000000   0.000000   0.000000   0.000000   0.000000   0.000000
    17  H    0.000000   0.000000   0.000000   0.000000   0.000000   0.000000
    18  H    0.000000   0.000000   0.000000   0.000000   0.000000   0.000000
    19  H    0.000000   0.000000   0.000000   0.000000   0.000000   0.000000
    20  H    0.000000   0.000000   0.000000   0.000000   0.000000   0.000000
    21  H    0.000000   0.000000   0.000000   0.000000   0.000000   0.000000
    22  H    0.000000   0.000000   0.000000   0.000000   0.000000   0.000000
              13         14         15         16         17         18
     1  C    0.000000   0.000000   0.000000   0.000000   0.000000   0.000000
     2  C    0.000000   0.000000   0.000000   0.000000   0.000000   0.000000
     3  C    0.000000   0.000000   0.000000   0.000000   0.000000   0.000000
     4  C    0.000000   0.000000   0.000000   0.000000   0.000000   0.000000
     5  C    0.000000   0.000000   0.000000   0.000000   0.000000   0.000000
     6  C    0.000000   0.000000   0.000000   0.000000   0.000000   0.000000
     7  C    0.000000   0.000000   0.000000   0.000000   0.000000   0.000000
     8  C    0.000000   0.000000   0.000000   0.000000   0.000000   0.000000
     9  C    0.000000   0.000000   0.000000   0.000000   0.000000   0.000000
    10  C    0.000000   0.000000   0.000000   0.000000   0.000000   0.000000
    11  H    0.000000   0.000000   0.000000   0.000000   0.000000   0.000000
    12  H    0.000000   0.000000   0.000000   0.000000   0.000000   0.000000
    13  H    0.000000   0.000000   0.000000   0.000000   0.000000   0.000000
    14  H    0.000000   0.000000   0.000000   0.000000   0.000000   0.000000
    15  H    0.000000   0.000000   0.000000   0.000000   0.000000   0.000000
    16  H    0.000000   0.000000   0.000000   0.000000   0.000000   0.000000
    17  H    0.000000   0.000000   0.000000   0.000000   0.000000   0.000000
    18  H    0.000000   0.000000   0.000000   0.000000   0.000000   0.000000
    19  H    0.000000   0.000000   0.000000   0.000000   0.000000   0.000000
    20  H    0.000000   0.000000   0.000000   0.000000   0.000000   0.000000
    21  H    0.000000   0.000000   0.000000   0.000000   0.000000   0.000000
    22  H    0.000000   0.000000   0.000000   0.000000   0.000000   0.000000
              19         20         21         22
     1  C    0.000000   0.000000   0.000000   0.000000
     2  C    0.000000   0.000000   0.000000   0.000000
     3  C    0.000000   0.000000   0.000000   0.000000
     4  C    0.000000   0.000000   0.000000   0.000000
     5  C    0.000000   0.000000   0.000000   0.000000
     6  C    0.000000   0.000000   0.000000   0.000000
     7  C    0.000000   0.000000   0.000000   0.000000
     8  C    0.000000   0.000000   0.000000   0.000000
     9  C    0.000000   0.000000   0.000000   0.000000
    10  C    0.000000   0.000000   0.000000   0.000000
    11  H    0.000000   0.000000   0.000000   0.000000
    12  H    0.000000   0.000000   0.000000   0.000000
    13  H    0.000000   0.000000   0.000000   0.000000
    14  H    0.000000   0.000000   0.000000   0.000000
    15  H    0.000000   0.000000   0.000000   0.000000
    16  H    0.000000   0.000000   0.000000   0.000000
    17  H    0.000000   0.000000   0.000000   0.000000
    18  H    0.000000   0.000000   0.000000   0.000000
    19  H    0.000000   0.000000   0.000000   0.000000
    20  H    0.000000   0.000000   0.000000   0.000000
    21  H    0.000000   0.000000   0.000000   0.000000
    22  H    0.000000   0.000000   0.000000   0.000000
 Mulliken charges and spin densities:
               1          2
     1  C   -0.134988   0.000000
     2  C   -0.183940   0.000000
     3  C   -0.084759   0.000000
     4  C   -0.041984   0.000000
     5  C   -0.299262   0.000000
     6  C   -0.095203   0.000000
     7  C   -0.271543   0.000000
     8  C   -0.101183   0.000000
     9  C   -0.339321   0.000000
    10  C   -0.041274   0.000000
    11  H    0.128578   0.000000
    12  H    0.135822   0.000000
    13  H    0.134106   0.000000
    14  H    0.141647   0.000000
    15  H    0.129304   0.000000
    16  H    0.128449   0.000000
    17  H    0.155907   0.000000
    18  H    0.123605   0.000000
    19  H    0.135749   0.000000
    20  H    0.140221   0.000000
    21  H    0.110287   0.000000
    22  H    0.129785   0.000000
 Sum of Mulliken charges =   0.00000   0.00000
 Mulliken charges and spin densities with hydrogens summed into heavy atoms:
               1          2
     1  C   -0.006410   0.000000
     2  C   -0.048118   0.000000
     3  C    0.049346   0.000000
     4  C    0.099663   0.000000
     5  C   -0.041510   0.000000
     6  C    0.060704   0.000000
     7  C   -0.147938   0.000000
     8  C    0.034566   0.000000
     9  C   -0.088814   0.000000
    10  C    0.088512   0.000000
 Electronic spatial extent (au):  <R**2>=           1313.8624
 Charge=              0.0000 electrons
 Dipole moment (field-independent basis, Debye):
    X=             -0.2712    Y=             -0.0214    Z=              0.1705  Tot=              0.3210
 Quadrupole moment (field-independent basis, Debye-Ang):
   XX=            -60.6353   YY=            -59.7200   ZZ=            -60.8493
   XY=              0.7654   XZ=              0.6390   YZ=             -0.2164
 Traceless Quadrupole moment (field-independent basis, Debye-Ang):
   XX=             -0.2338   YY=              0.6816   ZZ=             -0.4478
   XY=              0.7654   XZ=              0.6390   YZ=             -0.2164
 Octapole moment (field-independent basis, Debye-Ang**2):
  XXX=              3.8834  YYY=              0.2420  ZZZ=              3.5096  XYY=              0.6169
  XXY=             -0.6644  XXZ=             -4.9001  XZZ=             -5.2276  YZZ=              0.7163
  YYZ=              0.1103  XYZ=              1.5969
 Hexadecapole moment (field-independent basis, Debye-Ang**3):
 XXXX=          -1190.2356 YYYY=           -410.4510 ZZZZ=           -213.0997 XXXY=              8.2661
 XXXZ=              7.6737 YYYX=            -13.7236 YYYZ=             -1.9002 ZZZX=              3.3000
 ZZZY=             -0.1892 XXYY=           -269.1611 XXZZ=           -241.5325 YYZZ=           -105.9643
 XXYZ=             -4.3898 YYXZ=              3.5810 ZZXY=              4.6492
 N-N= 5.197099341811D+02 E-N=-1.938492369641D+03  KE= 3.857151997937D+02
                          Isotropic Fermi Contact Couplings
        Atom                 a.u.       MegaHertz       Gauss      10(-4) cm-1
     1  C(13)              0.00000       0.00000       0.00000       0.00000
     2  C(13)              0.00000       0.00000       0.00000       0.00000
     3  C(13)              0.00000       0.00000       0.00000       0.00000
     4  C(13)              0.00000       0.00000       0.00000       0.00000
     5  C(13)              0.00000       0.00000       0.00000       0.00000
     6  C(13)              0.00000       0.00000       0.00000       0.00000
     7  C(13)              0.00000       0.00000       0.00000       0.00000
     8  C(13)              0.00000       0.00000       0.00000       0.00000
     9  C(13)              0.00000       0.00000       0.00000       0.00000
    10  C(13)              0.00000       0.00000       0.00000       0.00000
    11  H(1)               0.00000       0.00000       0.00000       0.00000
    12  H(1)               0.00000       0.00000       0.00000       0.00000
    13  H(1)               0.00000       0.00000       0.00000       0.00000
    14  H(1)               0.00000       0.00000       0.00000       0.00000
    15  H(1)               0.00000       0.00000       0.00000       0.00000
    16  H(1)               0.00000       0.00000       0.00000       0.00000
    17  H(1)               0.00000       0.00000       0.00000       0.00000
    18  H(1)               0.00000       0.00000       0.00000       0.00000
    19  H(1)               0.00000       0.00000       0.00000       0.00000
    20  H(1)               0.00000       0.00000       0.00000       0.00000
    21  H(1)               0.00000       0.00000       0.00000       0.00000
    22  H(1)               0.00000       0.00000       0.00000       0.00000
 --------------------------------------------------------
       Center         ----  Spin Dipole Couplings  ----
                      3XX-RR        3YY-RR        3ZZ-RR
 --------------------------------------------------------
     1   Atom        0.000000      0.000000      0.000000
     2   Atom        0.000000      0.000000      0.000000
     3   Atom        0.000000      0.000000      0.000000
     4   Atom        0.000000      0.000000      0.000000
     5   Atom        0.000000      0.000000      0.000000
     6   Atom        0.000000      0.000000      0.000000
     7   Atom        0.000000      0.000000      0.000000
     8   Atom        0.000000      0.000000      0.000000
     9   Atom        0.000000      0.000000      0.000000
    10   Atom        0.000000      0.000000      0.000000
    11   Atom        0.000000      0.000000      0.000000
    12   Atom        0.000000      0.000000      0.000000
    13   Atom        0.000000      0.000000      0.000000
    14   Atom        0.000000      0.000000      0.000000
    15   Atom        0.000000      0.000000      0.000000
    16   Atom        0.000000      0.000000      0.000000
    17   Atom        0.000000      0.000000      0.000000
    18   Atom        0.000000      0.000000      0.000000
    19   Atom        0.000000      0.000000      0.000000
    20   Atom        0.000000      0.000000      0.000000
    21   Atom        0.000000      0.000000      0.000000
    22   Atom        0.000000      0.000000      0.000000
 --------------------------------------------------------
                        XY            XZ            YZ
 --------------------------------------------------------
     1   Atom        0.000000      0.000000      0.000000
     2   Atom        0.000000      0.000000      0.000000
     3   Atom        0.000000      0.000000      0.000000
     4   Atom        0.000000      0.000000      0.000000
     5   Atom        0.000000      0.000000      0.000000
     6   Atom        0.000000      0.000000      0.000000
     7   Atom        0.000000      0.000000      0.000000
     8   Atom        0.000000      0.000000      0.000000
     9   Atom        0.000000      0.000000      0.000000
    10   Atom        0.000000      0.000000      0.000000
    11   Atom        0.000000      0.000000      0.000000
    12   Atom        0.000000      0.000000      0.000000
    13   Atom        0.000000      0.000000      0.000000
    14   Atom        0.000000      0.000000      0.000000
    15   Atom        0.000000      0.000000      0.000000
    16   Atom        0.000000      0.000000      0.000000
    17   Atom        0.000000      0.000000      0.000000
    18   Atom        0.000000      0.000000      0.000000
    19   Atom        0.000000      0.000000      0.000000
    20   Atom        0.000000      0.000000      0.000000
    21   Atom        0.000000      0.000000      0.000000
    22   Atom        0.000000      0.000000      0.000000
 --------------------------------------------------------


 ---------------------------------------------------------------------------------
              Anisotropic Spin Dipole Couplings in Principal Axis System
 ---------------------------------------------------------------------------------

       Atom             a.u.   MegaHertz   Gauss  10(-4) cm-1        Axes

              Baa     0.0000     0.000     0.000     0.000  1.0000  0.0000  0.0000
     1 C(13)  Bbb     0.0000     0.000     0.000     0.000  0.0000  1.0000  0.0000
              Bcc     0.0000     0.000     0.000     0.000  0.0000  0.0000  1.0000
 
              Baa     0.0000     0.000     0.000     0.000  1.0000  0.0000  0.0000
     2 C(13)  Bbb     0.0000     0.000     0.000     0.000  0.0000  1.0000  0.0000
              Bcc     0.0000     0.000     0.000     0.000  0.0000  0.0000  1.0000
 
              Baa     0.0000     0.000     0.000     0.000  1.0000  0.0000  0.0000
     3 C(13)  Bbb     0.0000     0.000     0.000     0.000  0.0000  1.0000  0.0000
              Bcc     0.0000     0.000     0.000     0.000  0.0000  0.0000  1.0000
 
              Baa     0.0000     0.000     0.000     0.000  1.0000  0.0000  0.0000
     4 C(13)  Bbb     0.0000     0.000     0.000     0.000  0.0000  1.0000  0.0000
              Bcc     0.0000     0.000     0.000     0.000  0.0000  0.0000  1.0000
 
              Baa     0.0000     0.000     0.000     0.000  1.0000  0.0000  0.0000
     5 C(13)  Bbb     0.0000     0.000     0.000     0.000  0.0000  1.0000  0.0000
              Bcc     0.0000     0.000     0.000     0.000  0.0000  0.0000  1.0000
 
              Baa     0.0000     0.000     0.000     0.000  1.0000  0.0000  0.0000
     6 C(13)  Bbb     0.0000     0.000     0.000     0.000  0.0000  1.0000  0.0000
              Bcc     0.0000     0.000     0.000     0.000  0.0000  0.0000  1.0000
 
              Baa     0.0000     0.000     0.000     0.000  1.0000  0.0000  0.0000
     7 C(13)  Bbb     0.0000     0.000     0.000     0.000  0.0000  1.0000  0.0000
              Bcc     0.0000     0.000     0.000     0.000  0.0000  0.0000  1.0000
 
              Baa     0.0000     0.000     0.000     0.000  1.0000  0.0000  0.0000
     8 C(13)  Bbb     0.0000     0.000     0.000     0.000  0.0000  1.0000  0.0000
              Bcc     0.0000     0.000     0.000     0.000  0.0000  0.0000  1.0000
 
              Baa     0.0000     0.000     0.000     0.000  1.0000  0.0000  0.0000
     9 C(13)  Bbb     0.0000     0.000     0.000     0.000  0.0000  1.0000  0.0000
              Bcc     0.0000     0.000     0.000     0.000  0.0000  0.0000  1.0000
 
              Baa     0.0000     0.000     0.000     0.000  1.0000  0.0000  0.0000
    10 C(13)  Bbb     0.0000     0.000     0.000     0.000  0.0000  1.0000  0.0000
              Bcc     0.0000     0.000     0.000     0.000  0.0000  0.0000  1.0000
 
              Baa     0.0000     0.000     0.000     0.000  1.0000  0.0000  0.0000
    11 H(1)   Bbb     0.0000     0.000     0.000     0.000  0.0000  1.0000  0.0000
              Bcc     0.0000     0.000     0.000     0.000  0.0000  0.0000  1.0000
 
              Baa     0.0000     0.000     0.000     0.000  1.0000  0.0000  0.0000
    12 H(1)   Bbb     0.0000     0.000     0.000     0.000  0.0000  1.0000  0.0000
              Bcc     0.0000     0.000     0.000     0.000  0.0000  0.0000  1.0000
 
              Baa     0.0000     0.000     0.000     0.000  1.0000  0.0000  0.0000
    13 H(1)   Bbb     0.0000     0.000     0.000     0.000  0.0000  1.0000  0.0000
              Bcc     0.0000     0.000     0.000     0.000  0.0000  0.0000  1.0000
 
              Baa     0.0000     0.000     0.000     0.000  1.0000  0.0000  0.0000
    14 H(1)   Bbb     0.0000     0.000     0.000     0.000  0.0000  1.0000  0.0000
              Bcc     0.0000     0.000     0.000     0.000  0.0000  0.0000  1.0000
 
              Baa     0.0000     0.000     0.000     0.000  1.0000  0.0000  0.0000
    15 H(1)   Bbb     0.0000     0.000     0.000     0.000  0.0000  1.0000  0.0000
              Bcc     0.0000     0.000     0.000     0.000  0.0000  0.0000  1.0000
 
              Baa     0.0000     0.000     0.000     0.000  1.0000  0.0000  0.0000
    16 H(1)   Bbb     0.0000     0.000     0.000     0.000  0.0000  1.0000  0.0000
              Bcc     0.0000     0.000     0.000     0.000  0.0000  0.0000  1.0000
 
              Baa     0.0000     0.000     0.000     0.000  1.0000  0.0000  0.0000
    17 H(1)   Bbb     0.0000     0.000     0.000     0.000  0.0000  1.0000  0.0000
              Bcc     0.0000     0.000     0.000     0.000  0.0000  0.0000  1.0000
 
              Baa     0.0000     0.000     0.000     0.000  1.0000  0.0000  0.0000
    18 H(1)   Bbb     0.0000     0.000     0.000     0.000  0.0000  1.0000  0.0000
              Bcc     0.0000     0.000     0.000     0.000  0.0000  0.0000  1.0000
 
              Baa     0.0000     0.000     0.000     0.000  1.0000  0.0000  0.0000
    19 H(1)   Bbb     0.0000     0.000     0.000     0.000  0.0000  1.0000  0.0000
              Bcc     0.0000     0.000     0.000     0.000  0.0000  0.0000  1.0000
 
              Baa     0.0000     0.000     0.000     0.000  1.0000  0.0000  0.0000
    20 H(1)   Bbb     0.0000     0.000     0.000     0.000  0.0000  1.0000  0.0000
              Bcc     0.0000     0.000     0.000     0.000  0.0000  0.0000  1.0000
 
              Baa     0.0000     0.000     0.000     0.000  1.0000  0.0000  0.0000
    21 H(1)   Bbb     0.0000     0.000     0.000     0.000  0.0000  1.0000  0.0000
              Bcc     0.0000     0.000     0.000     0.000  0.0000  0.0000  1.0000
 
              Baa     0.0000     0.000     0.000     0.000  1.0000  0.0000  0.0000
    22 H(1)   Bbb     0.0000     0.000     0.000     0.000  0.0000  1.0000  0.0000
              Bcc     0.0000     0.000     0.000     0.000  0.0000  0.0000  1.0000
 

 ---------------------------------------------------------------------------------

 PrsmSu:  requested number of processors reduced to:  25 ShMem   1 Linda.
 Calling FoFJK, ICntrl=      2127 FMM=F ISym2X=0 I1Cent= 0 IOpClX= 1 NMat=1 NMatS=1 NMatT=0.
 ***** Axes restored to original set *****
 -------------------------------------------------------------------
 Center     Atomic                   Forces (Hartrees/Bohr)
 Number     Number              X              Y              Z
 -------------------------------------------------------------------
      1        6          -0.002008844    0.005964294    0.007452178
      2        6           0.010258825    0.002513794   -0.000946131
      3        6           0.009770450    0.023814740    0.003586961
      4        6           0.010937148   -0.011643725   -0.017005842
      5        6           0.010962664   -0.014401116   -0.010420656
      6        6           0.003027842    0.005678864    0.001311169
      7        6          -0.017687513   -0.017439094    0.008427441
      8        6           0.004596184   -0.009797994   -0.017836724
      9        6          -0.013424048    0.023446602    0.006673930
     10        6          -0.012226221    0.005965739   -0.014551269
     11        1          -0.001201894   -0.003509898   -0.001647914
     12        1          -0.001659533   -0.000588957   -0.002989971
     13        1          -0.005789824   -0.003435918    0.014435726
     14        1           0.001893932    0.001551477    0.015718595
     15        1          -0.007000945   -0.006658631    0.007203103
     16        1           0.004234826    0.008984210   -0.007403369
     17        1          -0.000034492    0.010960954   -0.011281283
     18        1          -0.001891726    0.001472584    0.001421662
     19        1           0.002546361    0.001658639    0.003429717
     20        1          -0.004238432    0.003681188   -0.009856862
     21        1           0.004255323   -0.010628978    0.010261202
     22        1           0.004679918   -0.017588774    0.014018338
 -------------------------------------------------------------------
 Cartesian Forces:  Max     0.023814740 RMS     0.009695625

 GradGradGradGradGradGradGradGradGradGradGradGradGradGradGradGradGradGrad
 Berny optimization.
 FormGI is forming the generalized inverse of G from B-inverse, IUseBI=4.
 Internal  Forces:  Max     0.018824686 RMS     0.004841408
 Search for a local minimum.
 Step number   1 out of a maximum of  132
 All quantities printed in internal units (Hartrees-Bohrs-Radians)
 Mixed Optimization -- RFO/linear search
 Second derivative matrix not updated -- first step.
 ITU=  0
     Eigenvalues ---    0.00549   0.00930   0.01053   0.01244   0.01381
     Eigenvalues ---    0.01729   0.01835   0.01922   0.02055   0.02445
     Eigenvalues ---    0.02736   0.03128   0.03687   0.04250   0.04721
     Eigenvalues ---    0.04917   0.05721   0.05903   0.06035   0.06193
     Eigenvalues ---    0.06339   0.07062   0.07479   0.07920   0.07984
     Eigenvalues ---    0.08410   0.08853   0.09882   0.10937   0.12405
     Eigenvalues ---    0.15458   0.15885   0.15965   0.15997   0.17444
[...]
 .00004948,-0.00008537,-0.00026904,0.00004763,0.00009492,-0.00017205,-0
 .00227819,-0.00128693,0.00217532,-0.03240741,0.20454655,-0.00260386,0.
 00394044,0.00620596,0.01489426,-0.14655193,-0.18662168,0.00533540,-0.0
 1641880,-0.00772797,-0.00157924,0.00019250,-0.00337457,-0.00505369,-0.
 00189181,0.00266993,0.00026976,0.00027264,-0.00007595,-0.00000530,0.00
 007431,0.00024673,-0.00018906,-0.00009432,0.00005327,-0.00014639,-0.00
 006846,-0.00003586,-0.00014434,0.00004125,-0.00018062,0.00254802,0.001
 21607,-0.00106651,-0.01337890,0.15943853,0.18936291,-0.00040566,-0.000
 33245,-0.00191054,0.00164960,0.01429707,-0.01074779,-0.05157328,-0.034
 11449,0.02916334,0.00054573,0.00373537,-0.00743730,0.00023615,0.001823
 66,-0.00095617,-0.00409292,-0.00170843,-0.00101397,0.00000111,-0.00188
 202,-0.00052178,-0.00071000,-0.00036152,0.00003937,0.00070767,-0.00216
 632,-0.00105319,-0.00483917,-0.02179537,0.01744568,-0.00137923,-0.0005
 7777,0.00063407,0.00014068,-0.00047363,0.00023895,0.05949987,-0.000772
 41,0.00042628,-0.00037657,0.00280939,0.00432469,-0.00047881,-0.0356580
 0,-0.21738503,0.12017029,-0.00474118,-0.00835073,0.01338541,-0.0000052
 6,-0.00270675,0.00033297,-0.00419116,-0.00271489,-0.00156714,0.0002258
 9,-0.00092791,0.00079204,-0.00025858,-0.00029135,-0.00019840,0.0003406
 4,0.00000484,-0.00035987,-0.00131304,-0.00341112,0.00034089,-0.0001439
 1,-0.00001539,0.00035067,0.00039132,-0.00026026,0.00072641,0.04317816,
 0.22917516,-0.00147918,-0.00139979,-0.00350557,0.00286367,0.02413537,-
 0.01505727,0.03084366,0.12224411,-0.13630917,-0.00319664,-0.00838007,0
 .00870479,0.00019352,-0.00058061,-0.00062807,-0.00067481,-0.00208742,0
 .00086766,-0.00013112,-0.00014579,0.00065359,0.00004489,0.00008890,-0.
 00019577,0.00019161,0.00043266,0.00019539,-0.00187588,-0.00070780,-0.0
 0180609,-0.00165536,-0.00038790,0.00101753,-0.00014860,-0.00083803,0.0
 0023204,-0.02462792,-0.13310680,0.14363061,-0.00377290,0.00186630,-0.0
 0308124,-0.00086330,0.00006601,-0.00066702,-0.00134663,-0.00084214,0.0
 0308760,-0.04700608,0.00253912,0.00910931,0.00255466,-0.00369610,-0.02
 416174,0.00150967,0.00306933,0.02452913,0.00145397,-0.00062731,-0.0010
 6295,-0.00034183,0.00029519,-0.00015964,-0.00041000,0.00014892,-0.0008
 0853,0.00052121,-0.00079526,0.00128288,0.00004106,-0.00109758,-0.00100
 313,0.00013279,-0.00010593,-0.00001331,0.00050851,0.00000482,-0.000051
 52,0.05079786,0.00137082,-0.00166259,-0.00015604,0.00204539,-0.0040215
 6,-0.00224876,0.00057602,0.00176863,-0.02716192,0.00267577,-0.04408129
 ,-0.01579635,-0.00166723,0.00166909,0.01117452,0.00086102,0.00032037,0
 .01537395,0.00083195,0.00039135,-0.00048295,-0.00013655,0.00014094,-0.
 00025122,0.00045566,0.00013222,0.00042180,-0.00070862,-0.00142902,-0.0
 0073840,-0.00011430,0.00056936,0.00014319,-0.00100079,0.00014540,-0.00
 112330,-0.00103534,0.00160053,0.00139939,-0.00159696,0.04469914,-0.001
 36816,0.00067622,-0.00081593,0.00010500,-0.00064766,-0.00040338,-0.001
 01606,0.00176505,-0.00419728,0.00707919,-0.01706308,-0.32570186,0.0028
 7279,-0.00177759,-0.00767522,-0.00085041,0.00011724,-0.00848420,0.0000
 0203,0.00012352,0.00048348,0.00031042,0.00010583,0.00017684,0.00024946
 ,-0.00018916,0.00052426,-0.00008950,0.00030630,-0.00033099,0.00005646,
 -0.00035538,-0.00027798,-0.00017014,0.00001183,-0.00014347,-0.00003565
 ,-0.00028390,0.00055905,-0.00876925,0.01767524,0.34588772,0.00442115,0
 .00333947,-0.00010808,0.00076085,-0.00064466,-0.00010704,-0.00126344,0
 .00010424,-0.00003107,-0.01848254,-0.00590819,0.01406759,-0.22076334,-
 0.02356089,0.11694664,-0.00166925,0.00254835,-0.00330366,0.00006772,0.
 00080997,0.00045421,-0.00031589,-0.00007587,-0.00000568,-0.00040269,0.
 00033400,-0.00009516,-0.00137347,0.00017451,0.00099478,-0.00040749,0.0
 0036958,0.00054887,-0.00014711,-0.00014317,0.00027080,0.00001639,0.000
 13307,0.00011487,0.00145647,-0.00055287,-0.00025901,0.23994038,0.01858
 470,0.00002670,-0.01264760,-0.00058511,-0.00123051,-0.00269439,0.00058
 904,0.00034676,-0.00073872,0.00633795,0.00063530,-0.00478635,-0.021327
 52,-0.04848396,0.01709330,0.00002131,0.00058763,0.00069484,0.00012131,
 -0.00010287,-0.00022683,0.00004051,0.00006280,-0.00003814,0.00007600,0
 .00001046,0.00000304,0.00004927,-0.00014128,-0.00000510,-0.00052755,0.
 00016309,0.00023502,-0.00099370,-0.00143577,0.00095892,-0.00013515,-0.
 00001678,0.00007012,-0.00047593,0.00066816,-0.00016928,0.02387646,0.05
 216198,0.02195598,0.00047613,-0.01428146,-0.00172462,-0.00097747,-0.00
 272694,0.00086538,0.00045319,-0.00056927,-0.01442979,-0.00386855,0.010
 39290,0.12116300,0.01871267,-0.12867379,-0.00251113,0.00138464,-0.0016
 7429,-0.00005029,0.00049675,0.00037042,-0.00017628,-0.00005266,-0.0000
 1032,-0.00032078,0.00025566,0.00004950,-0.00080504,-0.00025286,0.00098
 652,-0.00069042,-0.00023113,-0.00004111,-0.00097128,-0.00144638,0.0011
 0438,0.00022901,0.00004188,0.00002121,0.00069317,-0.00073810,0.0010052
 3,-0.13069596,-0.01571231,0.13924725,-0.00076066,-0.00123935,0.0018972
 5,-0.00015500,-0.00031049,-0.00169561,-0.00271288,0.00295725,-0.003105
 08,0.00003837,0.02609530,-0.00495761,-0.04659405,-0.01910905,0.0050940
 1,0.00164350,-0.00090726,-0.00022716,-0.00010255,-0.00021820,-0.000091
 54,-0.00004291,0.00013486,0.00015668,-0.00006672,-0.00026613,-0.000039
 09,0.00072679,0.00027973,0.00006269,0.00012912,0.00004304,-0.00004907,
 0.00016366,0.00019151,0.00011445,-0.00077693,0.00098299,0.00061641,-0.
 00055734,0.00023076,-0.00057835,-0.00196053,-0.02581806,0.00757850,0.0
 5081588,0.00042880,-0.01776219,0.00402314,-0.00113714,-0.00086809,-0.0
 0202364,-0.00077410,-0.00088750,0.00089911,-0.00024156,-0.00605717,0.0
 0173794,-0.01749025,-0.28279139,0.07070957,0.00000815,0.00138486,0.000
 11272,0.00007099,-0.00007712,-0.00045239,0.00018099,0.00007790,-0.0000
 4480,0.00002748,0.00006183,0.00003107,-0.00035027,0.00042960,-0.000243
 22,0.00006039,0.00045108,-0.00056030,0.00111369,0.00021081,-0.00047218
 ,0.00039358,-0.00030664,-0.00001550,0.00057512,-0.00051600,0.00008329,
 -0.00075618,-0.00315321,0.00147404,0.01711621,0.30975373,-0.00120878,-
 0.02710106,0.01012893,0.00014762,-0.00211517,-0.00355421,-0.00158648,-
 0.00122645,-0.00192999,0.00089451,0.01603919,-0.00424580,0.00443988,0.
 07051203,-0.06568731,0.00079042,-0.00116699,0.00105719,0.00002761,0.00
 008105,0.00023691,-0.00020812,-0.00004783,-0.00002210,0.00001448,-0.00
 015748,0.00002473,0.00018996,-0.00027188,-0.00012531,-0.00018536,0.001
 25237,0.00034497,0.00196350,0.00046643,-0.00073000,0.00004101,0.000303
 03,0.00049622,-0.00073632,0.00043533,-0.00051420,0.00139360,0.01820515
 ,-0.00531163,-0.00564418,-0.07499229,0.06970758,-0.00158689,-0.0009950
 4,0.00013024,-0.00095192,-0.00151621,0.00052094,-0.00110609,0.00047432
 ,0.00079088,-0.00204962,-0.00742000,0.02879802,0.00033037,-0.00028536,
 0.00142776,-0.05110857,0.00974171,-0.05838311,-0.01335004,0.00127906,-
 0.01990729,-0.00284269,-0.00162007,-0.00275187,0.00091198,-0.00076721,
 -0.00183189,-0.00397129,0.00530052,-0.01341682,0.00006078,0.00000001,-
 0.00007454,-0.00006575,0.00004556,-0.00008274,-0.00003849,0.00012687,-
 0.00031056,-0.00392177,-0.00271305,0.00185719,0.00037806,0.00015550,-0
 .00015266,0.00025592,0.00074282,-0.00026368,0.07963372,-0.00115786,0.0
 0037083,0.00032143,-0.00064774,-0.00120129,0.00005428,0.00077721,0.000
 67971,0.00069887,0.00061088,0.00078677,-0.00083849,-0.00074277,0.00083
 675,0.00008556,0.00670213,-0.04942329,0.03250631,-0.01003164,0.0038432
 8,-0.01934798,-0.00031422,-0.00117493,-0.00045020,-0.00099381,0.002324
 76,0.00072226,0.00729934,-0.00754550,0.03273267,0.00013358,0.00005165,
 -0.00010069,-0.00005265,-0.00006761,-0.00004245,0.00028944,0.00038269,
 -0.00036627,0.00065372,-0.00032828,-0.00031170,-0.00013603,-0.00015800
 ,-0.00014502,-0.00010799,-0.00015939,-0.00023549,-0.00364830,0.0578236
 7,-0.00099923,-0.00161596,0.00113182,-0.00197554,-0.00057557,0.0004390
 4,-0.00018151,-0.00062779,-0.00064976,0.00112407,0.00537045,-0.0196749
 5,-0.00161393,-0.00036274,0.00008676,-0.05393619,0.04189128,-0.2717360
 0,-0.00710245,-0.00069968,-0.00746961,0.00204986,-0.00306040,0.0015551
 6,0.00093187,0.00159406,0.00293701,-0.00094847,0.00236766,-0.00259255,
 0.00013687,0.00011337,0.00000687,0.00005896,-0.00003724,0.00006064,0.0
 0007095,0.00010735,0.00013123,0.00238725,0.00191016,-0.00029053,-0.000
 23753,-0.00032353,0.00003229,0.00079496,-0.00036336,0.00008336,0.06136
 276,-0.04655942,0.29595409,0.00001699,0.00000596,-0.00008992,0.0000054
 3,0.00000944,0.00033990,-0.00023486,-0.00122702,0.00051825,0.00033991,
 -0.00035639,0.00014182,-0.00000797,-0.00009755,0.00010142,0.00713882,-
 0.01839451,-0.00480818,-0.05698740,-0.02923285,-0.00941537,0.00762880,
 0.02327137,0.00743776,-0.00324467,0.00125840,0.00270692,-0.00414168,-0
 .00204960,-0.00209706,-0.00001879,0.00000755,-0.00001336,-0.00001185,-
 0.00001020,-0.00002785,-0.00043903,-0.00033659,-0.00003743,-0.00030118
 ,-0.00007786,0.00031407,-0.00006522,0.00001444,-0.00001138,-0.00005974
 ,0.00005764,-0.00009313,-0.00050779,-0.00016326,-0.00094365,0.04958182
 ,-0.00001497,0.00000457,-0.00005017,-0.00000279,-0.00000334,0.00019537
 ,-0.00013605,-0.00064494,0.00026613,-0.00001340,-0.00019644,-0.0001589
 0,-0.00007145,-0.00009428,0.00012027,0.00320100,-0.00359124,-0.0013695
 5,-0.02220464,-0.31259067,-0.08996771,-0.00599415,-0.00829640,-0.00365
 654,0.00070498,0.00112925,-0.00315178,-0.00161135,-0.00021820,-0.00149
 727,-0.00000571,0.00001490,-0.00001377,0.00001594,0.00000475,-0.000021
 14,-0.00021101,-0.00012290,-0.00003739,-0.00023418,-0.00011082,0.00009
 361,-0.00006951,-0.00000020,-0.00001482,-0.00000666,0.00003907,-0.0000
 3623,-0.00029269,-0.00082705,-0.00011201,0.02625960,0.32646842,-0.0000
 1494,0.00002848,-0.00003231,0.00003785,-0.00001514,0.00001516,-0.00009
 661,0.00030371,0.00018446,-0.00040962,-0.00036294,0.00005431,-0.000016
 47,-0.00008021,0.00008736,0.00196272,-0.00167221,0.00178732,-0.0070090
 4,-0.08620291,-0.06304890,-0.00312838,-0.00976454,0.00292670,0.0026491
 4,-0.00411838,0.00985380,0.00076338,0.00017650,0.00007953,-0.00002333,
 -0.00001537,-0.00001720,-0.00003482,-0.00001703,-0.00003417,0.00002473
 ,-0.00002796,-0.00008974,0.00004526,0.00008041,-0.00005947,-0.00002739
 ,0.00003733,-0.00003000,-0.00002863,0.00004581,-0.00000291,-0.00016315
 ,0.00065107,-0.00033017,0.00644651,0.09771175,0.05426098,-0.00004886,0
 .00006719,-0.00001775,0.00004464,-0.00001164,0.00003334,-0.00003242,0.
 00019493,0.00036800,-0.00027671,-0.00037773,-0.00090676,-0.00010002,-0
 .00021623,0.00014289,-0.00233640,0.00088545,0.00403755,-0.01397849,-0.
 01100816,-0.00082145,-0.31360256,-0.08006460,0.02177299,-0.00059165,0.
 00222082,0.00122776,-0.00009600,0.00050512,-0.00016874,-0.00000370,0.0
 0000116,-0.00003968,-0.00000477,-0.00000603,-0.00004022,-0.00001458,-0
 .00002477,-0.00000690,0.00002354,0.00003391,-0.00000233,-0.00008576,0.
 00000135,-0.00005426,-0.00000004,0.00002757,-0.00002197,0.00032338,0.0
 0018155,-0.00019866,0.00052166,0.00080163,-0.00080814,0.33039595,-0.00
 011327,-0.00006806,-0.00018488,-0.00003370,0.00008785,0.00022298,0.000
 24165,0.00011647,0.00069921,-0.00002002,0.00064051,0.00074170,0.000020
 72,0.00017870,-0.00015426,0.00217658,-0.00192206,-0.00513594,0.0196179
 1,0.00959468,-0.00167487,-0.08565467,-0.07763182,-0.00112763,-0.020382
 66,-0.00097144,0.00387351,-0.00290257,-0.00356593,-0.00226830,0.000013
 98,0.00005669,-0.00000316,0.00001856,0.00000896,0.00000177,-0.00034143
 ,0.00006310,0.00009056,-0.00002687,0.00004498,0.00002974,0.00006499,-0
 .00002020,0.00006612,-0.00004115,-0.00001145,0.00001712,-0.00038031,-0
 .00012321,-0.00004660,-0.00065704,-0.00017552,0.00236400,0.08785006,0.
 07325009,0.00011702,0.00020103,-0.00003239,0.00039189,-0.00009014,0.00
 003663,-0.00038319,0.00054769,0.00091152,-0.00058399,-0.00120459,0.000
 47081,0.00015248,0.00012600,-0.00001039,0.00295768,-0.00263323,0.00892
 975,0.00742485,0.00374961,0.00566449,0.02103283,-0.00235828,-0.0414133
 2,-0.00887039,-0.00175297,0.00357067,0.00114996,-0.00248176,-0.0014818
 3,-0.00004353,-0.00002577,0.00000183,-0.00001098,-0.00000878,-0.000026
 27,0.00002409,0.00003099,-0.00001391,0.00001311,0.00000327,-0.00012046
 ,0.00002604,0.00001963,0.00000509,-0.00004994,0.00006122,-0.00004976,0
 .00158173,0.00101776,0.00020745,-0.00101152,0.00189115,-0.00532798,-0.
 02433126,0.00237714,0.02892341,-0.00014604,0.00010190,-0.00016526,-0.0
 0008495,-0.00005905,-0.00018518,0.00079446,-0.00101521,-0.00066331,0.0
 0004240,0.00034071,-0.00048957,-0.00001500,-0.00010319,-0.00013001,0.0
 0194717,-0.00036379,0.00042434,-0.00212143,-0.00079875,0.00065379,-0.0
 0085358,-0.00148601,-0.01109005,-0.05059296,0.00468042,-0.03792307,0.0
 0609847,0.00040204,0.02948598,-0.00004665,-0.00002155,0.00000365,-0.00
 015041,-0.00006440,-0.00009072,-0.00001531,0.00004157,-0.00003761,0.00
 018712,-0.00007663,-0.00020576,-0.00000244,0.00000007,-0.00003255,-0.0
 0001692,-0.00000809,-0.00000731,0.00042832,-0.00021508,-0.00156086,0.0
 0022552,-0.00029009,0.00081953,-0.00017546,-0.00038805,0.00040774,0.05
 130946,-0.00002519,-0.00003470,-0.00004860,-0.00006749,0.00005611,0.00
 002390,0.00060354,-0.00009703,-0.00012405,0.00025391,0.00030547,0.0002
 8019,0.00003158,0.00004158,-0.00001324,-0.00176343,0.00060962,-0.00305
 415,-0.00131884,-0.00255640,-0.00116574,-0.00133659,-0.00211324,-0.029
 42971,0.00365675,-0.04230626,0.00133107,0.00021591,-0.00154149,0.00651
 080,0.00000531,0.00000950,0.00000628,-0.00008838,-0.00002999,-0.000065
 06,-0.00001902,0.00004912,0.00003089,-0.00004844,-0.00017346,0.0000448
 2,0.00000229,-0.00000829,0.00000884,-0.00000631,-0.00001694,-0.0000274
 5,0.00001411,0.00015360,0.00064889,0.00078380,-0.00102020,0.00239939,-
 0.00034106,-0.00030273,0.00073327,-0.00169631,0.04785974,0.00011854,-0
 .00009504,0.00024505,0.00042105,-0.00009010,-0.00025296,-0.00023017,0.
 00038942,0.00034552,-0.00020849,-0.00004986,0.00053566,0.00005188,0.00
 008785,-0.00007711,0.00114242,0.00052458,0.00183950,-0.00282101,-0.000
 10959,0.00046263,-0.00062014,-0.00453546,-0.00773196,-0.03650369,0.006
 32611,-0.29376557,-0.00204916,0.00080826,-0.01618568,-0.00000544,-0.00
 005164,0.00005428,0.00014181,0.00009781,0.00007813,0.00002896,0.000039
 82,0.00004358,-0.00019575,0.00007161,0.00002274,0.00003592,0.00000958,
 0.00002107,0.00001738,0.00001153,0.00002141,0.00082917,-0.00063674,-0.
 00073608,0.00017884,-0.00014393,0.00015568,-0.00010576,-0.00060535,-0.
 00043081,0.03792995,-0.00172690,0.32280931,-0.00002332,0.00008471,-0.0
 0001615,0.00013078,-0.00012807,0.00026974,-0.00059044,0.00163997,0.000
 29834,-0.00137428,0.00081670,0.00030913,-0.00036672,0.00000086,0.00036
 698,-0.00395854,-0.00152497,0.00489587,-0.00109768,-0.00246077,-0.0020
 5637,0.01004588,-0.00854957,0.00483188,-0.15980982,0.12496240,-0.04134
 249,-0.01241545,0.01991970,-0.00960005,0.00000461,0.00001595,-0.000048
 97,-0.00002667,0.00000075,-0.00011279,-0.00012904,-0.00012345,0.000019
 52,-0.00027014,0.00003497,0.00009950,-0.00017752,0.00000142,-0.0000861
 9,0.00000829,0.00002564,-0.00001504,0.00037755,-0.00021118,0.00023229,
 0.00043768,0.00018253,-0.00107179,0.00004455,0.00091089,0.00024835,-0.
 00264846,0.00272874,-0.00102160,0.17059973,0.00003804,0.00001612,-0.00
 003701,0.00002573,-0.00000034,-0.00001741,-0.00003945,0.00028373,-0.00
 018714,0.00003305,-0.00004943,0.00036339,0.00001976,0.00004523,-0.0000
 4609,-0.00071032,0.00046552,0.00097660,-0.00209838,-0.00361175,-0.0012
 3441,0.01876625,-0.01778051,0.00625323,0.12506984,-0.18616352,0.047443
 94,-0.00380344,0.00466846,-0.00346741,-0.00000033,0.00000454,0.0000115
 5,0.00000479,0.00001711,0.00001175,0.00012413,0.00000135,0.00002862,-0
 .00003315,0.00002184,-0.00001782,0.00003281,-0.00000531,0.00001979,-0.
 00001042,0.00000282,0.00000917,0.00002430,0.00002224,0.00026750,0.0007
 1075,0.00016109,-0.00147572,-0.00068958,0.00064530,-0.00016319,-0.0004
 0135,0.00034577,0.00031199,-0.13745685,0.20099623,0.00002049,-0.000115
 54,-0.00001475,-0.00008359,0.00012281,-0.00002814,0.00027840,-0.000395
 25,-0.00017420,0.00059099,-0.00021075,0.00032742,0.00028360,-0.0000034
 6,-0.00020695,0.00329960,-0.00057833,-0.00101601,-0.00026860,-0.001118
 27,0.00048802,0.00694763,-0.00774663,0.00079317,-0.04183999,0.04853410
 ,-0.06289283,0.00734089,-0.01326354,0.00355228,0.00000408,0.00000242,0
 .00001626,0.00003321,0.00003165,0.00001674,0.00002840,0.00008684,0.000
 03562,-0.00001201,-0.00002861,-0.00003142,0.00010342,0.00000778,0.0000
 6259,-0.00001545,0.00000236,-0.00000837,0.00045149,-0.00042384,-0.0001
 1128,0.00023344,-0.00013180,-0.00044097,-0.00017921,0.00053372,0.00016
 845,-0.02090375,0.02315813,-0.00678506,0.04400281,-0.04853796,0.065445
 35,-0.00043615,0.00004914,-0.00150508,-0.00366873,-0.00006606,0.002971
 30,-0.01581214,0.00010977,-0.02476061,-0.00069524,-0.00031348,-0.00219
 408,-0.00008162,-0.00044792,0.00031252,-0.00358928,0.00203428,-0.00953
 935,0.00044367,-0.00116148,0.00064006,-0.00020635,0.00075226,0.0020969
 5,0.00065488,-0.00451300,0.02806802,-0.05834263,0.00991991,-0.06098858
 ,0.00012663,0.00063931,-0.00029583,-0.00007171,-0.00002656,-0.00020323
 ,0.00110792,-0.00066636,-0.00065465,-0.00039569,0.00056391,0.00039849,
 0.00007569,-0.00000630,0.00022760,0.00002473,-0.00007148,0.00006779,-0
 .00119919,0.00177468,0.00054818,0.00012353,-0.00000704,0.00008320,-0.0
 0000631,0.00002642,-0.00024296,-0.00416334,-0.00158489,0.00286526,0.00
 123900,0.00039379,-0.00031585,0.08487232,-0.00034315,0.00020744,-0.001
 00412,-0.00322473,-0.00052477,0.00161657,-0.01202815,0.00129421,-0.018
 29477,-0.00108527,-0.00099897,0.00151264,-0.00044696,-0.00049201,0.000
 00885,0.01059733,-0.01056665,0.03184544,0.00148841,0.00046602,0.001904
 93,-0.00026876,-0.00010685,0.00062963,-0.00013724,0.00164957,-0.007430
 17,0.00838814,-0.04222663,0.02473662,0.00016415,0.00044426,-0.00023841
 ,0.00007737,-0.00001268,-0.00012515,0.00131254,0.00048199,-0.00046722,
 0.00036134,0.00015103,-0.00021714,0.00005761,0.00009352,0.00004958,0.0
 0000942,0.00019541,0.00005746,0.00173346,-0.00626740,0.00011359,0.0002
 2389,0.00007016,-0.00004605,-0.00003095,0.00010512,-0.00004004,0.00142
 083,0.00077024,-0.00063396,-0.00087037,-0.00008649,0.00007414,-0.00739
 891,0.05535347,0.00026603,-0.00023226,-0.00011535,-0.00048887,-0.00034
 319,0.00154474,-0.00244448,0.00101677,-0.00509547,0.00147604,-0.000657
 85,0.00115466,-0.00022554,0.00012413,0.00037704,-0.00211436,0.00260567
 ,-0.00514486,-0.00051078,-0.00108186,0.00199212,-0.00014487,-0.0014678
 2,0.00138476,-0.00114426,0.00250583,-0.02224163,-0.06066361,0.03079552
 ,-0.28175862,0.00014753,0.00013407,0.00004192,0.00005702,0.00004111,-0
 .00001369,0.00033575,-0.00030913,0.00101709,-0.00042531,0.00003679,0.0
 0038707,-0.00008617,0.00000753,0.00002037,0.00014936,-0.00002413,0.000
 08028,-0.00041186,0.00066806,0.00096523,0.00012992,0.00008471,0.000008
 55,0.00012056,0.00018342,0.00001702,0.00376003,0.00047843,-0.00066932,
 -0.00020296,-0.00051338,0.00080407,0.06242086,-0.03405243,0.30524403\\
 0.00000184,-0.00002614,0.00000715,-0.00000687,0.00002358,0.00001721,-0
 .00007061,0.00000423,-0.00000296,0.00010914,-0.00004707,0.00003661,-0.
 00005511,0.00000844,-0.00003386,0.00000203,-0.00000240,-0.00003732,0.0
 0002142,0.00003543,-0.00000722,-0.00004803,-0.00000194,0.00003429,0.00
 008762,-0.00000286,0.00001146,-0.00004799,-0.00001423,-0.00004753,0.00
 000268,0.00000270,0.00000275,0.00000938,-0.00000819,0.00000158,0.00001
 639,-0.00002021,-0.00000873,-0.00003938,0.00001055,0.00000699,0.000001
 66,0.00000073,0.00000657,0.00000156,0.00000787,0.00001517,-0.00000443,
 -0.00000027,0.00001453,0.00000224,-0.00001225,0.00000244,0.00001353,0.
 00000088,-0.00001855,-0.00000767,0.00001081,-0.00000725,0.00000211,0.0
 0001152,-0.00001324,0.00000848,0.00001880,0.00001990\\\@


 A COMPLEXITY IS MERELY A DISARRANGEMENT OF SIMPLICITIES.

                                    -- G. O. ABELL IN "EXPLORATION OF THE UNIVERSE"
 Job cpu time:       0 days 16 hours 14 minutes 30.1 seconds.
 File lengths (MBytes):  RWF=    551 Int=      0 D2E=      0 Chk=     23 Scr=      1
 Normal termination of Gaussian 09 at Sat May 20 03:43:24 2017.
