 Entering Gaussian System, Link 0=g09
 Input=input.inp
 Output=input.log
 Initial command:
 /usr/common/software/g09/d1/g09/l1.exe "/global/cscratch1/sd/kehangha/Gau-57866.inp" -scrdir="/global/cscratch1/sd/kehangha/"
 Entering Link 1 = /usr/common/software/g09/d1/g09/l1.exe PID=     57867.
  
 Copyright (c) 1988,1990,1992,1993,1995,1998,2003,2009,2013,
            Gaussian, Inc.  All Rights Reserved.
  
 This is part of the Gaussian(R) 09 program.  It is based on
 the Gaussian(R) 03 system (copyright 2003, Gaussian, Inc.),
 the Gaussian(R) 98 system (copyright 1998, Gaussian, Inc.),
 the Gaussian(R) 94 system (copyright 1995, Gaussian, Inc.),
 the Gaussian 92(TM) system (copyright 1992, Gaussian, Inc.),
 the Gaussian 90(TM) system (copyright 1990, Gaussian, Inc.),
 the Gaussian 88(TM) system (copyright 1988, Gaussian, Inc.),
 the Gaussian 86(TM) system (copyright 1986, Carnegie Mellon
 University), and the Gaussian 82(TM) system (copyright 1983,
 Carnegie Mellon University). Gaussian is a federally registered
 trademark of Gaussian, Inc.
  
 This software contains proprietary and confidential information,
 including trade secrets, belonging to Gaussian, Inc.
  
 This software is provided under written license and may be
 used, copied, transmitted, or stored only in accord with that
 written license.
  
 The following legend is applicable only to US Government
 contracts under FAR:
  
                    RESTRICTED RIGHTS LEGEND
  
 Use, reproduction and disclosure by the US Government is
 subject to restrictions as set forth in subparagraphs (a)
 and (c) of the Commercial Computer Software - Restricted
 Rights clause in FAR 52.227-19.
  
 Gaussian, Inc.
 340 Quinnipiac St., Bldg. 40, Wallingford CT 06492
  
  
 ---------------------------------------------------------------
 Warning -- This program may not be used in any manner that
 competes with the business of Gaussian, Inc. or will provide
 assistance to any competitor of Gaussian, Inc.  The licensee
 of this program is prohibited from giving any competitor of
 Gaussian, Inc. access to this program.  By using this program,
 the user acknowledges that Gaussian, Inc. is engaged in the
 business of creating and licensing software in the field of
 computational chemistry and represents and warrants to the
 licensee that it is not a competitor of Gaussian, Inc. and that
 it will not use this program in any manner prohibited above.
 ---------------------------------------------------------------
  

 Cite this work as:
 Gaussian 09, Revision D.01,
 M. J. Frisch, G. W. Trucks, H. B. Schlegel, G. E. Scuseria, 
 M. A. Robb, J. R. Cheeseman, G. Scalmani, V. Barone, B. Mennucci, 
 G. A. Petersson, H. Nakatsuji, M. Caricato, X. Li, H. P. Hratchian, 
 A. F. Izmaylov, J. Bloino, G. Zheng, J. L. Sonnenberg, M. Hada, 
 M. Ehara, K. Toyota, R. Fukuda, J. Hasegawa, M. Ishida, T. Nakajima, 
 Y. Honda, O. Kitao, H. Nakai, T. Vreven, J. A. Montgomery, Jr., 
 J. E. Peralta, F. Ogliaro, M. Bearpark, J. J. Heyd, E. Brothers, 
 K. N. Kudin, V. N. Staroverov, T. Keith, R. Kobayashi, J. Normand, 
 K. Raghavachari, A. Rendell, J. C. Burant, S. S. Iyengar, J. Tomasi, 
 M. Cossi, N. Rega, J. M. Millam, M. Klene, J. E. Knox, J. B. Cross, 
 V. Bakken, C. Adamo, J. Jaramillo, R. Gomperts, R. E. Stratmann, 
 O. Yazyev, A. J. Austin, R. Cammi, C. Pomelli, J. W. Ochterski, 
 R. L. Martin, K. Morokuma, V. G. Zakrzewski, G. A. Voth, 
 P. Salvador, J. J. Dannenberg, S. Dapprich, A. D. Daniels, 
 O. Farkas, J. B. Foresman, J. V. Ortiz, J. Cioslowski, 
 and D. J. Fox, Gaussian, Inc., Wallingford CT, 2013.
 
 ******************************************
 Gaussian 09:  ES64L-G09RevD.01 24-Apr-2013
                20-May-2017 
 ******************************************
 %chk=check.chk
 %mem=1500mb
 %nproc=32
 Will use up to   32 processors via shared memory.
 -------------------------
 # opt freq um062x/cc-pvtz
 -------------------------
 1/14=-1,18=20,19=15,26=3,38=1/1,3;
 2/9=110,12=2,17=6,18=5,40=1/2;
 3/5=16,6=1,11=2,16=1,25=1,30=1,71=1,74=-55,116=2/1,2,3;
 4//1;
 5/5=2,38=5/2;
 6/7=2,8=2,9=2,10=2,28=1/1;
 7//1,2,3,16;
 1/14=-1,18=20,19=15,26=3/3(2);
 2/9=110/2;
 99//99;
 2/9=110/2;
 3/5=16,6=1,11=2,16=1,25=1,30=1,71=1,74=-55,116=2/1,2,3;
 4/5=5,16=3,69=1/1;
 5/5=2,38=5/2;
 7//1,2,3,16;
 1/14=-1,18=20,19=15,26=3/3(-5);
 2/9=110/2;
 6/7=2,8=2,9=2,10=2,19=2,28=1/1;
 99/9=1/99;
 ----------------------------------------------------------------------
 InChI=1S_slash_C10H12_slash_c1-2-9-7-4-5-8(6-7)10(9)3-1_slash_h1-2,4-5
 ,7-10H,3,6H2
 ----------------------------------------------------------------------
 Symbolic Z-matrix:
 Charge =  0 Multiplicity = 1
 C                     2.1431    0.5667    0.4939 
 C                     1.4685    1.2283   -0.4361 
 C                     0.3995    0.39     -1.0564 
 C                    -1.0537    0.846    -0.7559 
 C                    -1.1855    1.1475    0.7169 
 C                    -1.107    -0.0165    1.3601 
 C                    -0.9259   -1.0893    0.3138 
 C                    -1.7773   -0.4898   -0.7933 
 C                     0.4896   -0.9633   -0.3169 
 C                     1.6649   -0.8359    0.6715 
 H                     2.962     1.0019    1.0571 
 H                     1.6706    2.2597   -0.7055 
 H                     0.5737    0.2725   -2.1488 
 H                    -1.4572    1.6281   -1.4331 
 H                    -1.3897    2.1103    1.1727 
 H                    -1.238    -0.1592    2.4273 
 H                    -1.2128   -2.1122    0.6367 
 H                    -1.6781   -1.0217   -1.7687 
 H                    -2.8575   -0.4116   -0.5229 
 H                     0.669    -1.7954   -1.0351 
 H                     1.362    -1.0164    1.7246 
 H                     2.4799   -1.5395    0.3981 
 

 GradGradGradGradGradGradGradGradGradGradGradGradGradGradGradGradGradGrad
 Berny optimization.
 Initialization pass.
                           ----------------------------
                           !    Initial Parameters    !
                           ! (Angstroms and Degrees)  !
 --------------------------                            --------------------------
 ! Name  Definition              Value          Derivative Info.                !
 --------------------------------------------------------------------------------
 ! R1    R(1,2)                  1.3258         estimate D2E/DX2                !
 ! R2    R(1,10)                 1.4925         estimate D2E/DX2                !
 ! R3    R(1,11)                 1.085          estimate D2E/DX2                !
 ! R4    R(2,3)                  1.4934         estimate D2E/DX2                !
 ! R5    R(2,12)                 1.085          estimate D2E/DX2                !
 ! R6    R(3,4)                  1.5524         estimate D2E/DX2                !
 ! R7    R(3,9)                  1.5448         estimate D2E/DX2                !
 ! R8    R(3,13)                 1.1124         estimate D2E/DX2                !
 ! R9    R(4,5)                  1.5091         estimate D2E/DX2                !
 ! R10   R(4,8)                  1.5197         estimate D2E/DX2                !
 ! R11   R(4,14)                 1.1104         estimate D2E/DX2                !
 ! R12   R(5,6)                  1.3322         estimate D2E/DX2                !
 ! R13   R(5,15)                 1.0846         estimate D2E/DX2                !
 ! R14   R(6,7)                  1.5095         estimate D2E/DX2                !
 ! R15   R(6,16)                 1.0846         estimate D2E/DX2                !
 ! R16   R(7,8)                  1.5199         estimate D2E/DX2                !
 ! R17   R(7,9)                  1.5548         estimate D2E/DX2                !
 ! R18   R(7,17)                 1.1104         estimate D2E/DX2                !
 ! R19   R(8,18)                 1.1154         estimate D2E/DX2                !
 ! R20   R(8,19)                 1.1163         estimate D2E/DX2                !
 ! R21   R(9,10)                 1.5409         estimate D2E/DX2                !
 ! R22   R(9,20)                 1.1137         estimate D2E/DX2                !
 ! R23   R(10,21)                1.1106         estimate D2E/DX2                !
 ! R24   R(10,22)                1.1109         estimate D2E/DX2                !
 ! A1    A(2,1,10)             112.918          estimate D2E/DX2                !
 ! A2    A(2,1,11)             123.2302         estimate D2E/DX2                !
 ! A3    A(10,1,11)            123.8496         estimate D2E/DX2                !
 ! A4    A(1,2,3)              112.0533         estimate D2E/DX2                !
 ! A5    A(1,2,12)             123.6261         estimate D2E/DX2                !
 ! A6    A(3,2,12)             124.3195         estimate D2E/DX2                !
 ! A7    A(2,3,4)              115.1365         estimate D2E/DX2                !
 ! A8    A(2,3,9)              104.5465         estimate D2E/DX2                !
 ! A9    A(2,3,13)             110.7983         estimate D2E/DX2                !
 ! A10   A(4,3,9)              102.6654         estimate D2E/DX2                !
 ! A11   A(4,3,13)             111.5735         estimate D2E/DX2                !
 ! A12   A(9,3,13)             111.6183         estimate D2E/DX2                !
 ! A13   A(3,4,5)              109.2292         estimate D2E/DX2                !
 ! A14   A(3,4,8)              100.5309         estimate D2E/DX2                !
 ! A15   A(3,4,14)             115.4026         estimate D2E/DX2                !
 ! A16   A(5,4,8)               99.0936         estimate D2E/DX2                !
 ! A17   A(5,4,14)             115.0067         estimate D2E/DX2                !
 ! A18   A(8,4,14)             115.5355         estimate D2E/DX2                !
 ! A19   A(4,5,6)              106.9469         estimate D2E/DX2                !
 ! A20   A(4,5,15)             127.1504         estimate D2E/DX2                !
 ! A21   A(6,5,15)             125.7179         estimate D2E/DX2                !
 ! A22   A(5,6,7)              107.061          estimate D2E/DX2                !
 ! A23   A(5,6,16)             125.6536         estimate D2E/DX2                !
 ! A24   A(7,6,16)             127.0855         estimate D2E/DX2                !
 ! A25   A(6,7,8)               99.0542         estimate D2E/DX2                !
 ! A26   A(6,7,9)              109.44           estimate D2E/DX2                !
 ! A27   A(6,7,17)             114.9712         estimate D2E/DX2                !
 ! A28   A(8,7,9)              100.5184         estimate D2E/DX2                !
 ! A29   A(8,7,17)             115.497          estimate D2E/DX2                !
 ! A30   A(9,7,17)             115.3321         estimate D2E/DX2                !
 ! A31   A(4,8,7)               93.558          estimate D2E/DX2                !
 ! A32   A(4,8,18)             113.4745         estimate D2E/DX2                !
 ! A33   A(4,8,19)             113.1558         estimate D2E/DX2                !
 ! A34   A(7,8,18)             113.52           estimate D2E/DX2                !
 ! A35   A(7,8,19)             113.1579         estimate D2E/DX2                !
 ! A36   A(18,8,19)            109.3473         estimate D2E/DX2                !
 ! A37   A(3,9,7)              102.2445         estimate D2E/DX2                !
 ! A38   A(3,9,10)             106.2071         estimate D2E/DX2                !
 ! A39   A(3,9,20)             110.8065         estimate D2E/DX2                !
 ! A40   A(7,9,10)             116.1612         estimate D2E/DX2                !
 ! A41   A(7,9,20)             110.3465         estimate D2E/DX2                !
 ! A42   A(10,9,20)            110.643          estimate D2E/DX2                !
 ! A43   A(1,10,9)             104.2261         estimate D2E/DX2                !
 ! A44   A(1,10,21)            110.6691         estimate D2E/DX2                !
 ! A45   A(1,10,22)            109.3221         estimate D2E/DX2                !
 ! A46   A(9,10,21)            112.7539         estimate D2E/DX2                !
 ! A47   A(9,10,22)            110.4473         estimate D2E/DX2                !
 ! A48   A(21,10,22)           109.3015         estimate D2E/DX2                !
 ! D1    D(10,1,2,3)             0.2815         estimate D2E/DX2                !
 ! D2    D(10,1,2,12)          179.9218         estimate D2E/DX2                !
 ! D3    D(11,1,2,3)           179.7549         estimate D2E/DX2                !
 ! D4    D(11,1,2,12)           -0.6048         estimate D2E/DX2                !
 ! D5    D(2,1,10,9)            -1.5816         estimate D2E/DX2                !
 ! D6    D(2,1,10,21)         -123.055          estimate D2E/DX2                !
 ! D7    D(2,1,10,22)          116.5047         estimate D2E/DX2                !
 ! D8    D(11,1,10,9)          178.9487         estimate D2E/DX2                !
 ! D9    D(11,1,10,21)          57.4754         estimate D2E/DX2                !
 ! D10   D(11,1,10,22)         -62.9649         estimate D2E/DX2                !
 ! D11   D(1,2,3,4)            112.9828         estimate D2E/DX2                !
 ! D12   D(1,2,3,9)              1.1459         estimate D2E/DX2                !
 ! D13   D(1,2,3,13)          -119.2328         estimate D2E/DX2                !
 ! D14   D(12,2,3,4)           -66.6545         estimate D2E/DX2                !
 ! D15   D(12,2,3,9)          -178.4914         estimate D2E/DX2                !
 ! D16   D(12,2,3,13)           61.1299         estimate D2E/DX2                !
 ! D17   D(2,3,4,5)            -45.8968         estimate D2E/DX2                !
 ! D18   D(2,3,4,8)           -149.4941         estimate D2E/DX2                !
 ! D19   D(2,3,4,14)            85.4997         estimate D2E/DX2                !
 ! D20   D(9,3,4,5)             67.0453         estimate D2E/DX2                !
 ! D21   D(9,3,4,8)            -36.552          estimate D2E/DX2                !
 ! D22   D(9,3,4,14)          -161.5581         estimate D2E/DX2                !
 ! D23   D(13,3,4,5)          -173.2908         estimate D2E/DX2                !
 ! D24   D(13,3,4,8)            83.1118         estimate D2E/DX2                !
 ! D25   D(13,3,4,14)          -41.8943         estimate D2E/DX2                !
 ! D26   D(2,3,9,7)            120.1723         estimate D2E/DX2                !
 ! D27   D(2,3,9,10)            -2.0302         estimate D2E/DX2                !
 ! D28   D(2,3,9,20)          -122.2419         estimate D2E/DX2                !
 ! D29   D(4,3,9,7)             -0.3651         estimate D2E/DX2                !
 ! D30   D(4,3,9,10)          -122.5676         estimate D2E/DX2                !
 ! D31   D(4,3,9,20)           117.2207         estimate D2E/DX2                !
 ! D32   D(13,3,9,7)          -119.9978         estimate D2E/DX2                !
 ! D33   D(13,3,9,10)          117.7997         estimate D2E/DX2                !
 ! D34   D(13,3,9,20)           -2.412          estimate D2E/DX2                !
 ! D35   D(3,4,5,6)            -69.6327         estimate D2E/DX2                !
 ! D36   D(3,4,5,15)           115.1145         estimate D2E/DX2                !
 ! D37   D(8,4,5,6)             34.9548         estimate D2E/DX2                !
 ! D38   D(8,4,5,15)          -140.2979         estimate D2E/DX2                !
 ! D39   D(14,4,5,6)           158.7602         estimate D2E/DX2                !
 ! D40   D(14,4,5,15)          -16.4926         estimate D2E/DX2                !
 ! D41   D(3,4,8,7)             58.6453         estimate D2E/DX2                !
 ! D42   D(3,4,8,18)           -58.9305         estimate D2E/DX2                !
 ! D43   D(3,4,8,19)           175.7194         estimate D2E/DX2                !
 ! D44   D(5,4,8,7)            -53.0093         estimate D2E/DX2                !
 ! D45   D(5,4,8,18)          -170.585          estimate D2E/DX2                !
 ! D46   D(5,4,8,19)            64.0648         estimate D2E/DX2                !
 ! D47   D(14,4,8,7)          -176.4392         estimate D2E/DX2                !
 ! D48   D(14,4,8,18)           65.9851         estimate D2E/DX2                !
 ! D49   D(14,4,8,19)          -59.365          estimate D2E/DX2                !
 ! D50   D(4,5,6,7)             -0.1062         estimate D2E/DX2                !
 ! D51   D(4,5,6,16)          -175.2582         estimate D2E/DX2                !
 ! D52   D(15,5,6,7)           175.2336         estimate D2E/DX2                !
 ! D53   D(15,5,6,16)            0.0816         estimate D2E/DX2                !
 ! D54   D(5,6,7,8)            -34.77           estimate D2E/DX2                !
 ! D55   D(5,6,7,9)             69.8421         estimate D2E/DX2                !
 ! D56   D(5,6,7,17)          -158.4845         estimate D2E/DX2                !
 ! D57   D(16,6,7,8)           140.2917         estimate D2E/DX2                !
 ! D58   D(16,6,7,9)          -115.0962         estimate D2E/DX2                !
 ! D59   D(16,6,7,17)           16.5772         estimate D2E/DX2                !
 ! D60   D(6,7,8,4)             52.9082         estimate D2E/DX2                !
 ! D61   D(6,7,8,18)           170.446          estimate D2E/DX2                !
 ! D62   D(6,7,8,19)           -64.1642         estimate D2E/DX2                !
 ! D63   D(9,7,8,4)            -58.9535         estimate D2E/DX2                !
 ! D64   D(9,7,8,18)            58.5843         estimate D2E/DX2                !
 ! D65   D(9,7,8,19)          -176.0259         estimate D2E/DX2                !
 ! D66   D(17,7,8,4)           176.2487         estimate D2E/DX2                !
 ! D67   D(17,7,8,18)          -66.2135         estimate D2E/DX2                !
 ! D68   D(17,7,8,19)           59.1763         estimate D2E/DX2                !
 ! D69   D(6,7,9,3)            -66.4377         estimate D2E/DX2                !
 ! D70   D(6,7,9,10)            48.701          estimate D2E/DX2                !
 ! D71   D(6,7,9,20)           175.6482         estimate D2E/DX2                !
 ! D72   D(8,7,9,3)             37.1696         estimate D2E/DX2                !
 ! D73   D(8,7,9,10)           152.3083         estimate D2E/DX2                !
 ! D74   D(8,7,9,20)           -80.7445         estimate D2E/DX2                !
 ! D75   D(17,7,9,3)           162.0799         estimate D2E/DX2                !
 ! D76   D(17,7,9,10)          -82.7814         estimate D2E/DX2                !
 ! D77   D(17,7,9,20)           44.1658         estimate D2E/DX2                !
 ! D78   D(3,9,10,1)             2.165          estimate D2E/DX2                !
 ! D79   D(3,9,10,21)          122.2444         estimate D2E/DX2                !
 ! D80   D(3,9,10,22)         -115.1462         estimate D2E/DX2                !
 ! D81   D(7,9,10,1)          -110.7178         estimate D2E/DX2                !
 ! D82   D(7,9,10,21)            9.3616         estimate D2E/DX2                !
 ! D83   D(7,9,10,22)          131.971          estimate D2E/DX2                !
 ! D84   D(20,9,10,1)          122.4827         estimate D2E/DX2                !
 ! D85   D(20,9,10,21)        -117.4379         estimate D2E/DX2                !
 ! D86   D(20,9,10,22)           5.1715         estimate D2E/DX2                !
 --------------------------------------------------------------------------------
 Trust Radius=3.00D-01 FncErr=1.00D-07 GrdErr=1.00D-06
 Number of steps in this run=    132 maximum allowed number of steps=    132.
 GradGradGradGradGradGradGradGradGradGradGradGradGradGradGradGradGradGrad

                          Input orientation:                          
 ---------------------------------------------------------------------
 Center     Atomic      Atomic             Coordinates (Angstroms)
 Number     Number       Type             X           Y           Z
 ---------------------------------------------------------------------
      1          6           0        2.143100    0.566700    0.493900
      2          6           0        1.468500    1.228300   -0.436100
      3          6           0        0.399500    0.390000   -1.056400
      4          6           0       -1.053700    0.846000   -0.755900
      5          6           0       -1.185500    1.147500    0.716900
      6          6           0       -1.107000   -0.016500    1.360100
      7          6           0       -0.925900   -1.089300    0.313800
      8          6           0       -1.777300   -0.489800   -0.793300
      9          6           0        0.489600   -0.963300   -0.316900
     10          6           0        1.664900   -0.835900    0.671500
     11          1           0        2.962000    1.001900    1.057100
     12          1           0        1.670600    2.259700   -0.705500
     13          1           0        0.573700    0.272500   -2.148800
     14          1           0       -1.457200    1.628100   -1.433100
     15          1           0       -1.389700    2.110300    1.172700
     16          1           0       -1.238000   -0.159200    2.427300
     17          1           0       -1.212800   -2.112200    0.636700
     18          1           0       -1.678100   -1.021700   -1.768700
     19          1           0       -2.857500   -0.411600   -0.522900
     20          1           0        0.669000   -1.795400   -1.035100
     21          1           0        1.362000   -1.016400    1.724600
     22          1           0        2.479900   -1.539500    0.398100
 ---------------------------------------------------------------------
                    Distance matrix (angstroms):
                    1          2          3          4          5
     1  C    0.000000
     2  C    1.325783   0.000000
     3  C    2.339828   1.493412   0.000000
     4  C    3.443768   2.570976   1.552426   0.000000
     5  C    3.386242   2.894763   2.496122   1.509110   0.000000
     6  C    3.413733   3.377730   2.876501   2.285652   1.332203
     7  C    3.491924   3.415666   2.412978   2.214944   2.287609
     8  C    4.259415   3.689807   2.362568   1.519657   2.304709
     9  C    2.394235   2.403240   1.544797   2.418277   2.886205
    10  C    1.492482   2.350802   2.467733   3.501006   3.472854
    11  H    1.084984   2.124016   3.377530   4.408755   4.163975
    12  H    2.127925   1.084992   2.287926   3.069674   3.378982
    13  H    3.087626   2.155820   1.112425   2.217544   3.474571
    14  H    4.219249   3.116660   2.263212   1.110447   2.219752
    15  H    3.914607   3.396391   3.336099   2.330418   1.084636
    16  H    3.961919   4.177243   3.888341   3.343225   2.153065
    17  H    4.296389   4.415791   3.424486   3.273468   3.260801
    18  H    4.716348   4.091383   2.610879   2.214485   3.335610
    19  H    5.195859   4.627211   3.396356   2.211231   2.600669
    20  H    3.176528   3.184456   2.202057   3.165856   3.894783
    21  H    2.151963   3.117474   3.261645   3.931542   3.491086
    22  H    2.135109   3.062603   3.188511   4.416860   4.555959
                    6          7          8          9         10
     6  C    0.000000
     7  C    1.509450   0.000000
     8  C    2.304441   1.519853   0.000000
     9  C    2.501578   1.554766   2.364317   0.000000
    10  C    2.971366   2.627624   3.756882   1.540940   0.000000
    11  H    4.205438   4.476760   5.301897   3.444220   2.282250
    12  H    4.142807   4.358507   4.410836   3.454490   3.388053
    13  H    3.901365   3.188683   2.818809   2.211364   3.220770
    14  H    3.260263   3.273867   2.235466   3.428015   4.499794
    15  H    2.153675   3.345185   3.282668   3.898422   4.273392
    16  H    1.084638   2.330102   3.282134   3.340930   3.459420
    17  H    2.219563   1.110360   2.235116   2.264396   3.148223
    18  H    3.335562   2.215216   1.115421   2.609609   4.143036
    19  H    2.601162   2.211430   1.116272   3.398513   4.696672
    20  H    3.472124   2.204952   2.783423   1.113726   2.196575
    21  H    2.688610   2.688895   4.058612   2.220726   1.110562
    22  H    4.013829   3.436460   4.543683   2.191923   1.110867
                   11         12         13         14         15
    11  H    0.000000
    12  H    2.521217   0.000000
    13  H    4.063717   2.689845   0.000000
    14  H    5.111023   3.272836   2.544491   0.000000
    15  H    4.492127   3.593799   4.273735   2.650899   0.000000
    16  H    4.567888   4.911768   4.940578   4.259716   2.597627
    17  H    5.225257   5.406386   4.078895   4.281781   4.260058
    18  H    5.797468   4.807470   2.624887   2.680087   4.306325
    19  H    6.193623   5.260502   3.858066   2.636225   3.374830
    20  H    4.178521   4.189949   2.350664   4.049627   4.936306
    21  H    2.660656   4.090654   4.157632   4.991226   4.201512
    22  H    2.669347   4.038170   3.661098   5.374732   5.375393
                   16         17         18         19         20
    16  H    0.000000
    17  H    2.649734   0.000000
    18  H    4.306276   2.681724   0.000000
    19  H    3.374932   2.634720   1.820776   0.000000
    20  H    4.278085   2.537016   2.577918   3.822755   0.000000
    21  H    2.826407   3.002316   4.630916   4.818840   2.950091
    22  H    4.454847   3.744456   4.717213   5.532471   2.323555
                   21         22
    21  H    0.000000
    22  H    1.811887   0.000000
 Stoichiometry    C10H12
 Framework group  C1[X(C10H12)]
 Deg. of freedom    60
 Full point group                 C1      NOp   1
 Largest Abelian subgroup         C1      NOp   1
 Largest concise Abelian subgroup C1      NOp   1
                         Standard orientation:                         
 ---------------------------------------------------------------------
 Center     Atomic      Atomic             Coordinates (Angstroms)
 Number     Number       Type             X           Y           Z
 ---------------------------------------------------------------------
      1          6           0        2.200453    0.178054    0.421485
      2          6           0        1.505762    1.201108   -0.056495
      3          6           0        0.327742    0.753450   -0.857838
      4          6           0       -1.056195    1.083796   -0.236858
      5          6           0       -1.043539    0.719648    1.227604
      6          6           0       -1.003639   -0.610160    1.296749
      7          6           0       -0.992531   -1.127217   -0.121337
      8          6           0       -1.882175   -0.076931   -0.765843
      9          6           0        0.372294   -0.788975   -0.784770
     10          6           0        1.630651   -1.144767    0.030366
     11          1           0        3.093943    0.296458    1.025510
     12          1           0        1.764851    2.239369    0.122655
     13          1           0        0.402567    1.116395   -1.906724
     14          1           0       -1.451513    2.095997   -0.465475
     15          1           0       -1.134334    1.395141    2.071346
     16          1           0       -1.057843   -1.197824    2.206779
     17          1           0       -1.330853   -2.178128   -0.239763
     18          1           0       -1.904571   -0.135166   -1.879518
     19          1           0       -2.927343   -0.086485   -0.373930
     20          1           0        0.427210   -1.231943   -1.805137
     21          1           0        1.401552   -1.754341    0.929967
     22          1           0        2.363401   -1.687514   -0.604085
 ---------------------------------------------------------------------
 Rotational constants (GHZ):      2.5107490      1.4888174      1.3778533
 Standard basis: CC-pVTZ (5D, 7F)
 There are   530 symmetry adapted cartesian basis functions of A   symmetry.
 There are   468 symmetry adapted basis functions of A   symmetry.
   468 basis functions,   724 primitive gaussians,   530 cartesian basis functions
    36 alpha electrons       36 beta electrons
       nuclear repulsion energy       538.8287890723 Hartrees.
 NAtoms=   22 NActive=   22 NUniq=   22 SFac= 1.00D+00 NAtFMM=   60 NAOKFM=F Big=F
 Integral buffers will be    131072 words long.
 Raffenetti 2 integral format.
 Two-electron integral symmetry is turned on.
 One-electron integrals computed using PRISM.
 PrsmSu:  requested number of processors reduced to:  24 ShMem   1 Linda.
 NBasis=   468 RedAO= T EigKep=  6.49D-05  NBF=   468
 NBsUse=   468 1.00D-06 EigRej= -1.00D+00 NBFU=   468
 ExpMin= 1.03D-01 ExpMax= 8.24D+03 ExpMxC= 2.81D+02 IAcc=1 IRadAn=         1 AccDes= 0.00D+00
 Harris functional with IExCor= 1009 and IRadAn=       1 diagonalized for initial guess.
 HarFok:  IExCor= 1009 AccDes= 0.00D+00 IRadAn=         1 IDoV= 1 UseB2=F ITyADJ=14
 ICtDFT=  3500011 ScaDFX=  1.000000  1.000000  1.000000  1.000000
 FoFCou: FMM=F IPFlag=           0 FMFlag=      100000 FMFlg1=           0
         NFxFlg=           0 DoJE=T BraDBF=F KetDBF=T FulRan=T
         wScrn=  0.000000 ICntrl=     500 IOpCl=  0 I1Cent=   200000004 NGrid=           0
         NMat0=    1 NMatS0=      1 NMatT0=    0 NMatD0=    1 NMtDS0=    0 NMtDT0=    0
 Petite list used in FoFCou.
 Initial guess <Sx>= 0.0000 <Sy>= 0.0000 <Sz>= 0.0000 <S**2>= 0.0000 S= 0.0000
 Requested convergence on RMS density matrix=1.00D-08 within 128 cycles.
 Requested convergence on MAX density matrix=1.00D-06.
 Requested convergence on             energy=1.00D-06.
 No special actions if energy rises.
 Integral accuracy reduced to 1.0D-05 until final iterations.
 Initial convergence to 1.0D-05 achieved.  Increase integral accuracy.
 SCF Done:  E(UM062X) =  -388.186952160     A.U. after   13 cycles
            NFock= 13  Conv=0.97D-08     -V/T= 2.0064
 <Sx>= 0.0000 <Sy>= 0.0000 <Sz>= 0.0000 <S**2>= 0.0000 S= 0.0000
 <L.S>= 0.000000000000E+00
 Annihilation of the first spin contaminant:
 S**2 before annihilation     0.0000,   after     0.0000

 **********************************************************************

            Population analysis using the SCF density.

 **********************************************************************

 Orbital symmetries:
 Alpha Orbitals:
       Occupied  (A) (A) (A) (A) (A) (A) (A) (A) (A) (A) (A) (A)
                 (A) (A) (A) (A) (A) (A) (A) (A) (A) (A) (A) (A)
                 (A) (A) (A) (A) (A) (A) (A) (A) (A) (A) (A) (A)
       Virtual   (A) (A) (A) (A) (A) (A) (A) (A) (A) (A) (A) (A)
                 (A) (A) (A) (A) (A) (A) (A) (A) (A) (A) (A) (A)
                 (A) (A) (A) (A) (A) (A) (A) (A) (A) (A) (A) (A)
                 (A) (A) (A) (A) (A) (A) (A) (A) (A) (A) (A) (A)
                 (A) (A) (A) (A) (A) (A) (A) (A) (A) (A) (A) (A)
                 (A) (A) (A) (A) (A) (A) (A) (A) (A) (A) (A) (A)
                 (A) (A) (A) (A) (A) (A) (A) (A) (A) (A) (A) (A)
                 (A) (A) (A) (A) (A) (A) (A) (A) (A) (A) (A) (A)
                 (A) (A) (A) (A) (A) (A) (A) (A) (A) (A) (A) (A)
                 (A) (A) (A) (A) (A) (A) (A) (A) (A) (A) (A) (A)
                 (A) (A) (A) (A) (A) (A) (A) (A) (A) (A) (A) (A)
                 (A) (A) (A) (A) (A) (A) (A) (A) (A) (A) (A) (A)
                 (A) (A) (A) (A) (A) (A) (A) (A) (A) (A) (A) (A)
                 (A) (A) (A) (A) (A) (A) (A) (A) (A) (A) (A) (A)
                 (A) (A) (A) (A) (A) (A) (A) (A) (A) (A) (A) (A)
                 (A) (A) (A) (A) (A) (A) (A) (A) (A) (A) (A) (A)
                 (A) (A) (A) (A) (A) (A) (A) (A) (A) (A) (A) (A)
                 (A) (A) (A) (A) (A) (A) (A) (A) (A) (A) (A) (A)
                 (A) (A) (A) (A) (A) (A) (A) (A) (A) (A) (A) (A)
                 (A) (A) (A) (A) (A) (A) (A) (A) (A) (A) (A) (A)
                 (A) (A) (A) (A) (A) (A) (A) (A) (A) (A) (A) (A)
                 (A) (A) (A) (A) (A) (A) (A) (A) (A) (A) (A) (A)
                 (A) (A) (A) (A) (A) (A) (A) (A) (A) (A) (A) (A)
                 (A) (A) (A) (A) (A) (A) (A) (A) (A) (A) (A) (A)
                 (A) (A) (A) (A) (A) (A) (A) (A) (A) (A) (A) (A)
                 (A) (A) (A) (A) (A) (A) (A) (A) (A) (A) (A) (A)
                 (A) (A) (A) (A) (A) (A) (A) (A) (A) (A) (A) (A)
                 (A) (A) (A) (A) (A) (A) (A) (A) (A) (A) (A) (A)
                 (A) (A) (A) (A) (A) (A) (A) (A) (A) (A) (A) (A)
                 (A) (A) (A) (A) (A) (A) (A) (A) (A) (A) (A) (A)
                 (A) (A) (A) (A) (A) (A) (A) (A) (A) (A) (A) (A)
                 (A) (A) (A) (A) (A) (A) (A) (A) (A) (A) (A) (A)
                 (A) (A) (A) (A) (A) (A) (A) (A) (A) (A) (A) (A)
                 (A) (A) (A) (A) (A) (A) (A) (A) (A) (A) (A) (A)
                 (A) (A) (A) (A) (A) (A) (A) (A) (A) (A) (A) (A)
                 (A) (A) (A) (A) (A) (A) (A) (A) (A) (A) (A) (A)
 Beta  Orbitals:
       Occupied  (A) (A) (A) (A) (A) (A) (A) (A) (A) (A) (A) (A)
                 (A) (A) (A) (A) (A) (A) (A) (A) (A) (A) (A) (A)
                 (A) (A) (A) (A) (A) (A) (A) (A) (A) (A) (A) (A)
       Virtual   (A) (A) (A) (A) (A) (A) (A) (A) (A) (A) (A) (A)
                 (A) (A) (A) (A) (A) (A) (A) (A) (A) (A) (A) (A)
                 (A) (A) (A) (A) (A) (A) (A) (A) (A) (A) (A) (A)
                 (A) (A) (A) (A) (A) (A) (A) (A) (A) (A) (A) (A)
                 (A) (A) (A) (A) (A) (A) (A) (A) (A) (A) (A) (A)
                 (A) (A) (A) (A) (A) (A) (A) (A) (A) (A) (A) (A)
                 (A) (A) (A) (A) (A) (A) (A) (A) (A) (A) (A) (A)
                 (A) (A) (A) (A) (A) (A) (A) (A) (A) (A) (A) (A)
                 (A) (A) (A) (A) (A) (A) (A) (A) (A) (A) (A) (A)
                 (A) (A) (A) (A) (A) (A) (A) (A) (A) (A) (A) (A)
                 (A) (A) (A) (A) (A) (A) (A) (A) (A) (A) (A) (A)
                 (A) (A) (A) (A) (A) (A) (A) (A) (A) (A) (A) (A)
                 (A) (A) (A) (A) (A) (A) (A) (A) (A) (A) (A) (A)
                 (A) (A) (A) (A) (A) (A) (A) (A) (A) (A) (A) (A)
                 (A) (A) (A) (A) (A) (A) (A) (A) (A) (A) (A) (A)
                 (A) (A) (A) (A) (A) (A) (A) (A) (A) (A) (A) (A)
                 (A) (A) (A) (A) (A) (A) (A) (A) (A) (A) (A) (A)
                 (A) (A) (A) (A) (A) (A) (A) (A) (A) (A) (A) (A)
                 (A) (A) (A) (A) (A) (A) (A) (A) (A) (A) (A) (A)
                 (A) (A) (A) (A) (A) (A) (A) (A) (A) (A) (A) (A)
                 (A) (A) (A) (A) (A) (A) (A) (A) (A) (A) (A) (A)
                 (A) (A) (A) (A) (A) (A) (A) (A) (A) (A) (A) (A)
                 (A) (A) (A) (A) (A) (A) (A) (A) (A) (A) (A) (A)
                 (A) (A) (A) (A) (A) (A) (A) (A) (A) (A) (A) (A)
                 (A) (A) (A) (A) (A) (A) (A) (A) (A) (A) (A) (A)
                 (A) (A) (A) (A) (A) (A) (A) (A) (A) (A) (A) (A)
                 (A) (A) (A) (A) (A) (A) (A) (A) (A) (A) (A) (A)
                 (A) (A) (A) (A) (A) (A) (A) (A) (A) (A) (A) (A)
                 (A) (A) (A) (A) (A) (A) (A) (A) (A) (A) (A) (A)
                 (A) (A) (A) (A) (A) (A) (A) (A) (A) (A) (A) (A)
                 (A) (A) (A) (A) (A) (A) (A) (A) (A) (A) (A) (A)
                 (A) (A) (A) (A) (A) (A) (A) (A) (A) (A) (A) (A)
                 (A) (A) (A) (A) (A) (A) (A) (A) (A) (A) (A) (A)
                 (A) (A) (A) (A) (A) (A) (A) (A) (A) (A) (A) (A)
                 (A) (A) (A) (A) (A) (A) (A) (A) (A) (A) (A) (A)
                 (A) (A) (A) (A) (A) (A) (A) (A) (A) (A) (A) (A)
 The electronic state is 1-A.
 Alpha  occ. eigenvalues --  -10.54007 -10.54000 -10.53816 -10.53751 -10.53167
 Alpha  occ. eigenvalues --  -10.53167 -10.52843 -10.52678 -10.52540 -10.52247
 Alpha  occ. eigenvalues --   -1.00384  -0.92158  -0.82849  -0.82348  -0.76909
 Alpha  occ. eigenvalues --   -0.75610  -0.64164  -0.63821  -0.61104  -0.59126
 Alpha  occ. eigenvalues --   -0.57023  -0.55604  -0.53706  -0.48419  -0.45998
 Alpha  occ. eigenvalues --   -0.45472  -0.43354  -0.42301  -0.40340  -0.39813
 Alpha  occ. eigenvalues --   -0.39017  -0.37670  -0.37187  -0.36287  -0.29635
 Alpha  occ. eigenvalues --   -0.29044
 Alpha virt. eigenvalues --    0.04299   0.06167   0.06566   0.09193   0.09667
 Alpha virt. eigenvalues --    0.09981   0.11907   0.12267   0.12830   0.13105
 Alpha virt. eigenvalues --    0.14955   0.15781   0.16004   0.16946   0.19193
 Alpha virt. eigenvalues --    0.19787   0.20901   0.22665   0.23164   0.23804
 Alpha virt. eigenvalues --    0.25695   0.26753   0.27282   0.29666   0.30628
 Alpha virt. eigenvalues --    0.32031   0.33346   0.34027   0.34918   0.36124
 Alpha virt. eigenvalues --    0.37152   0.37380   0.40332   0.40855   0.41653
 Alpha virt. eigenvalues --    0.42971   0.43463   0.44430   0.44581   0.45384
 Alpha virt. eigenvalues --    0.46094   0.46378   0.46993   0.47231   0.48077
 Alpha virt. eigenvalues --    0.48246   0.49794   0.50022   0.50871   0.51543
 Alpha virt. eigenvalues --    0.52119   0.52237   0.52585   0.53139   0.54011
 Alpha virt. eigenvalues --    0.54373   0.55564   0.56243   0.57319   0.58729
 Alpha virt. eigenvalues --    0.59604   0.60916   0.61673   0.64033   0.64952
 Alpha virt. eigenvalues --    0.65951   0.67001   0.68672   0.70508   0.71632
 Alpha virt. eigenvalues --    0.75175   0.76204   0.76772   0.83571   0.85288
 Alpha virt. eigenvalues --    0.85806   0.86583   0.87301   0.89368   0.91886
 Alpha virt. eigenvalues --    0.92899   0.94058   0.94838   0.95720   0.97498
 Alpha virt. eigenvalues --    0.98226   0.99152   1.00603   1.01518   1.02999
 Alpha virt. eigenvalues --    1.04444   1.04910   1.05963   1.06306   1.07589
 Alpha virt. eigenvalues --    1.08668   1.09623   1.10439   1.11384   1.12455
 Alpha virt. eigenvalues --    1.14187   1.14785   1.15546   1.16356   1.16996
 Alpha virt. eigenvalues --    1.17666   1.18626   1.19830   1.20766   1.21459
 Alpha virt. eigenvalues --    1.23572   1.23924   1.24622   1.25674   1.26321
 Alpha virt. eigenvalues --    1.27628   1.28424   1.28772   1.29593   1.31139
 Alpha virt. eigenvalues --    1.31828   1.32936   1.33881   1.34199   1.36666
 Alpha virt. eigenvalues --    1.37188   1.38613   1.39664   1.39853   1.41199
 Alpha virt. eigenvalues --    1.42082   1.42875   1.43874   1.45360   1.46329
 Alpha virt. eigenvalues --    1.46593   1.47911   1.48799   1.49698   1.50627
 Alpha virt. eigenvalues --    1.52869   1.54835   1.55481   1.56457   1.57430
 Alpha virt. eigenvalues --    1.59862   1.61235   1.61949   1.64714   1.65379
 Alpha virt. eigenvalues --    1.66063   1.67431   1.71246   1.72651   1.76545
 Alpha virt. eigenvalues --    1.79273   1.82286   1.84426   1.88824   1.90541
 Alpha virt. eigenvalues --    1.91518   1.95765   2.00355   2.06449   2.17202
 Alpha virt. eigenvalues --    2.18635   2.23968   2.28616   2.32290   2.32457
 Alpha virt. eigenvalues --    2.35458   2.36703   2.38310   2.39438   2.41145
 Alpha virt. eigenvalues --    2.42084   2.45897   2.46455   2.48874   2.50862
 Alpha virt. eigenvalues --    2.51726   2.53179   2.54598   2.55186   2.56323
 Alpha virt. eigenvalues --    2.57048   2.58410   2.59382   2.59884   2.60546
 Alpha virt. eigenvalues --    2.61823   2.62427   2.64395   2.65354   2.66586
 Alpha virt. eigenvalues --    2.66990   2.68569   2.70475   2.71123   2.72847
 Alpha virt. eigenvalues --    2.73015   2.74558   2.75345   2.77013   2.78295
 Alpha virt. eigenvalues --    2.79802   2.81665   2.82658   2.83933   2.84796
 Alpha virt. eigenvalues --    2.85588   2.87742   2.88683   2.89298   2.91313
 Alpha virt. eigenvalues --    2.93130   2.93518   2.95497   2.96360   2.96742
 Alpha virt. eigenvalues --    2.97922   2.98604   2.98924   2.99703   3.01718
 Alpha virt. eigenvalues --    3.02670   3.03920   3.05703   3.05854   3.06451
 Alpha virt. eigenvalues --    3.07580   3.09210   3.09780   3.11052   3.12211
 Alpha virt. eigenvalues --    3.12825   3.14036   3.16110   3.17313   3.18946
 Alpha virt. eigenvalues --    3.19721   3.20631   3.21330   3.22253   3.22908
 Alpha virt. eigenvalues --    3.23634   3.25373   3.26272   3.27134   3.27928
 Alpha virt. eigenvalues --    3.29597   3.29818   3.29968   3.31211   3.31790
 Alpha virt. eigenvalues --    3.33312   3.34602   3.35462   3.37520   3.38616
 Alpha virt. eigenvalues --    3.40415   3.40766   3.42209   3.42761   3.44759
 Alpha virt. eigenvalues --    3.45115   3.46379   3.46747   3.47545   3.49552
 Alpha virt. eigenvalues --    3.50534   3.51119   3.52684   3.53705   3.55061
 Alpha virt. eigenvalues --    3.56850   3.57368   3.58396   3.58757   3.60968
 Alpha virt. eigenvalues --    3.61990   3.62436   3.63628   3.64328   3.65250
 Alpha virt. eigenvalues --    3.67430   3.68453   3.70286   3.71370   3.72569
 Alpha virt. eigenvalues --    3.73129   3.75518   3.76352   3.76907   3.77397
 Alpha virt. eigenvalues --    3.80266   3.80666   3.82812   3.84204   3.85361
 Alpha virt. eigenvalues --    3.85972   3.87306   3.89323   3.90841   3.91654
 Alpha virt. eigenvalues --    3.92309   3.93191   3.93929   3.95189   3.96529
 Alpha virt. eigenvalues --    3.96940   3.98027   3.98525   3.98608   4.00306
 Alpha virt. eigenvalues --    4.01598   4.03205   4.03662   4.04484   4.05706
 Alpha virt. eigenvalues --    4.06793   4.08041   4.09193   4.10610   4.11003
 Alpha virt. eigenvalues --    4.12378   4.12741   4.13800   4.15312   4.15520
 Alpha virt. eigenvalues --    4.17189   4.18769   4.19580   4.20238   4.22502
 Alpha virt. eigenvalues --    4.23148   4.24827   4.25915   4.27920   4.29386
 Alpha virt. eigenvalues --    4.30532   4.31579   4.34477   4.34728   4.36637
 Alpha virt. eigenvalues --    4.37533   4.38350   4.39273   4.41758   4.43393
 Alpha virt. eigenvalues --    4.44223   4.46059   4.47996   4.49153   4.49904
 Alpha virt. eigenvalues --    4.51404   4.52509   4.53792   4.54977   4.57461
 Alpha virt. eigenvalues --    4.60309   4.60632   4.63533   4.65779   4.67800
 Alpha virt. eigenvalues --    4.69119   4.71087   4.72667   4.73573   4.74545
 Alpha virt. eigenvalues --    4.75868   4.76004   4.80034   4.82032   4.83835
 Alpha virt. eigenvalues --    4.85545   4.86315   4.87975   4.90870   4.91815
 Alpha virt. eigenvalues --    4.92372   4.94063   4.95258   4.98077   5.01436
 Alpha virt. eigenvalues --    5.01820   5.03627   5.04579   5.05342   5.07102
 Alpha virt. eigenvalues --    5.08966   5.11890   5.12874   5.16332   5.18289
 Alpha virt. eigenvalues --    5.20890   5.23722   5.24088   5.27365   5.29552
 Alpha virt. eigenvalues --    5.32258   5.35290   5.36550   5.38960   5.40106
 Alpha virt. eigenvalues --    5.40680   5.43466   5.47997   5.51355   5.52350
 Alpha virt. eigenvalues --    5.54680   5.60742   5.73625   5.76264   5.81571
 Alpha virt. eigenvalues --    5.90135   5.92447   5.93866   5.94733   5.96852
 Alpha virt. eigenvalues --    6.05635   6.20379  10.36327  10.84135  11.66148
 Alpha virt. eigenvalues --   12.02502  12.31216  12.79748  12.93606  13.04188
 Alpha virt. eigenvalues --   13.96820  14.12571
  Beta  occ. eigenvalues --  -10.54007 -10.54000 -10.53816 -10.53751 -10.53167
  Beta  occ. eigenvalues --  -10.53167 -10.52843 -10.52678 -10.52540 -10.52247
  Beta  occ. eigenvalues --   -1.00384  -0.92158  -0.82849  -0.82348  -0.76909
  Beta  occ. eigenvalues --   -0.75610  -0.64164  -0.63821  -0.61104  -0.59126
  Beta  occ. eigenvalues --   -0.57023  -0.55604  -0.53706  -0.48419  -0.45998
  Beta  occ. eigenvalues --   -0.45472  -0.43354  -0.42301  -0.40340  -0.39813
  Beta  occ. eigenvalues --   -0.39017  -0.37670  -0.37187  -0.36287  -0.29635
  Beta  occ. eigenvalues --   -0.29044
  Beta virt. eigenvalues --    0.04299   0.06167   0.06566   0.09193   0.09667
  Beta virt. eigenvalues --    0.09981   0.11907   0.12267   0.12830   0.13105
  Beta virt. eigenvalues --    0.14955   0.15781   0.16004   0.16946   0.19193
  Beta virt. eigenvalues --    0.19787   0.20901   0.22665   0.23164   0.23804
  Beta virt. eigenvalues --    0.25695   0.26753   0.27282   0.29666   0.30628
  Beta virt. eigenvalues --    0.32031   0.33346   0.34027   0.34918   0.36124
  Beta virt. eigenvalues --    0.37152   0.37380   0.40332   0.40855   0.41653
  Beta virt. eigenvalues --    0.42971   0.43463   0.44430   0.44581   0.45384
  Beta virt. eigenvalues --    0.46094   0.46378   0.46993   0.47231   0.48077
  Beta virt. eigenvalues --    0.48246   0.49794   0.50022   0.50871   0.51543
  Beta virt. eigenvalues --    0.52119   0.52237   0.52585   0.53139   0.54011
  Beta virt. eigenvalues --    0.54373   0.55564   0.56243   0.57319   0.58729
  Beta virt. eigenvalues --    0.59604   0.60916   0.61673   0.64033   0.64952
  Beta virt. eigenvalues --    0.65951   0.67001   0.68672   0.70508   0.71632
  Beta virt. eigenvalues --    0.75175   0.76204   0.76772   0.83571   0.85288
  Beta virt. eigenvalues --    0.85806   0.86583   0.87301   0.89368   0.91886
  Beta virt. eigenvalues --    0.92899   0.94058   0.94838   0.95720   0.97498
  Beta virt. eigenvalues --    0.98226   0.99152   1.00603   1.01518   1.02999
  Beta virt. eigenvalues --    1.04444   1.04910   1.05963   1.06306   1.07589
  Beta virt. eigenvalues --    1.08668   1.09623   1.10439   1.11384   1.12455
  Beta virt. eigenvalues --    1.14187   1.14785   1.15546   1.16356   1.16996
  Beta virt. eigenvalues --    1.17666   1.18626   1.19830   1.20766   1.21459
  Beta virt. eigenvalues --    1.23572   1.23924   1.24622   1.25674   1.26321
  Beta virt. eigenvalues --    1.27628   1.28424   1.28772   1.29593   1.31139
  Beta virt. eigenvalues --    1.31828   1.32936   1.33881   1.34199   1.36666
  Beta virt. eigenvalues --    1.37188   1.38613   1.39664   1.39853   1.41199
  Beta virt. eigenvalues --    1.42082   1.42875   1.43874   1.45360   1.46329
  Beta virt. eigenvalues --    1.46593   1.47911   1.48799   1.49698   1.50627
  Beta virt. eigenvalues --    1.52869   1.54835   1.55481   1.56457   1.57430
  Beta virt. eigenvalues --    1.59862   1.61235   1.61949   1.64714   1.65379
  Beta virt. eigenvalues --    1.66063   1.67431   1.71246   1.72651   1.76545
  Beta virt. eigenvalues --    1.79273   1.82286   1.84426   1.88824   1.90541
  Beta virt. eigenvalues --    1.91518   1.95765   2.00355   2.06449   2.17202
  Beta virt. eigenvalues --    2.18635   2.23968   2.28616   2.32290   2.32457
  Beta virt. eigenvalues --    2.35458   2.36703   2.38310   2.39438   2.41145
  Beta virt. eigenvalues --    2.42084   2.45897   2.46455   2.48874   2.50862
  Beta virt. eigenvalues --    2.51726   2.53179   2.54598   2.55186   2.56323
  Beta virt. eigenvalues --    2.57048   2.58410   2.59382   2.59884   2.60546
  Beta virt. eigenvalues --    2.61823   2.62427   2.64395   2.65354   2.66586
  Beta virt. eigenvalues --    2.66990   2.68569   2.70475   2.71123   2.72847
  Beta virt. eigenvalues --    2.73015   2.74558   2.75345   2.77013   2.78295
  Beta virt. eigenvalues --    2.79802   2.81665   2.82658   2.83933   2.84796
  Beta virt. eigenvalues --    2.85588   2.87742   2.88683   2.89298   2.91313
  Beta virt. eigenvalues --    2.93130   2.93518   2.95497   2.96360   2.96742
  Beta virt. eigenvalues --    2.97922   2.98604   2.98924   2.99703   3.01718
  Beta virt. eigenvalues --    3.02670   3.03920   3.05703   3.05854   3.06451
  Beta virt. eigenvalues --    3.07580   3.09210   3.09780   3.11052   3.12211
  Beta virt. eigenvalues --    3.12825   3.14036   3.16110   3.17313   3.18946
  Beta virt. eigenvalues --    3.19721   3.20631   3.21330   3.22253   3.22908
  Beta virt. eigenvalues --    3.23634   3.25373   3.26272   3.27134   3.27928
  Beta virt. eigenvalues --    3.29597   3.29818   3.29968   3.31211   3.31790
  Beta virt. eigenvalues --    3.33312   3.34602   3.35462   3.37520   3.38616
  Beta virt. eigenvalues --    3.40415   3.40766   3.42209   3.42761   3.44759
  Beta virt. eigenvalues --    3.45115   3.46379   3.46747   3.47545   3.49552
  Beta virt. eigenvalues --    3.50534   3.51119   3.52684   3.53705   3.55061
  Beta virt. eigenvalues --    3.56850   3.57368   3.58396   3.58757   3.60968
  Beta virt. eigenvalues --    3.61990   3.62436   3.63628   3.64328   3.65250
  Beta virt. eigenvalues --    3.67430   3.68453   3.70286   3.71370   3.72569
  Beta virt. eigenvalues --    3.73129   3.75518   3.76352   3.76907   3.77397
  Beta virt. eigenvalues --    3.80266   3.80666   3.82812   3.84204   3.85361
  Beta virt. eigenvalues --    3.85972   3.87306   3.89323   3.90841   3.91654
  Beta virt. eigenvalues --    3.92309   3.93191   3.93929   3.95189   3.96529
  Beta virt. eigenvalues --    3.96940   3.98027   3.98525   3.98608   4.00306
  Beta virt. eigenvalues --    4.01598   4.03205   4.03662   4.04484   4.05706
  Beta virt. eigenvalues --    4.06793   4.08041   4.09193   4.10610   4.11003
  Beta virt. eigenvalues --    4.12378   4.12741   4.13800   4.15312   4.15520
  Beta virt. eigenvalues --    4.17189   4.18769   4.19580   4.20238   4.22502
  Beta virt. eigenvalues --    4.23148   4.24827   4.25915   4.27920   4.29386
  Beta virt. eigenvalues --    4.30532   4.31579   4.34477   4.34728   4.36637
  Beta virt. eigenvalues --    4.37533   4.38350   4.39273   4.41758   4.43393
  Beta virt. eigenvalues --    4.44223   4.46059   4.47996   4.49153   4.49904
  Beta virt. eigenvalues --    4.51404   4.52509   4.53792   4.54977   4.57461
  Beta virt. eigenvalues --    4.60309   4.60632   4.63533   4.65779   4.67800
  Beta virt. eigenvalues --    4.69119   4.71087   4.72667   4.73573   4.74545
  Beta virt. eigenvalues --    4.75868   4.76004   4.80034   4.82032   4.83835
  Beta virt. eigenvalues --    4.85545   4.86315   4.87975   4.90870   4.91815
  Beta virt. eigenvalues --    4.92372   4.94063   4.95258   4.98077   5.01436
  Beta virt. eigenvalues --    5.01820   5.03627   5.04579   5.05342   5.07102
  Beta virt. eigenvalues --    5.08966   5.11890   5.12874   5.16332   5.18289
  Beta virt. eigenvalues --    5.20890   5.23722   5.24088   5.27365   5.29552
  Beta virt. eigenvalues --    5.32258   5.35290   5.36550   5.38960   5.40106
  Beta virt. eigenvalues --    5.40680   5.43466   5.47997   5.51355   5.52350
  Beta virt. eigenvalues --    5.54680   5.60742   5.73625   5.76264   5.81571
  Beta virt. eigenvalues --    5.90135   5.92447   5.93866   5.94733   5.96852
  Beta virt. eigenvalues --    6.05635   6.20379  10.36327  10.84135  11.66148
  Beta virt. eigenvalues --   12.02502  12.31216  12.79748  12.93606  13.04188
  Beta virt. eigenvalues --   13.96820  14.12571
          Condensed to atoms (all electrons):
               1          2          3          4          5          6
     1  C    5.049193   0.615536  -0.094626  -0.001423  -0.003623  -0.004747
     2  C    0.615536   5.112487   0.359071  -0.070237  -0.009799   0.001003
     3  C   -0.094626   0.359071   5.098343   0.328944  -0.052667  -0.001101
     4  C   -0.001423  -0.070237   0.328944   5.139057   0.312736  -0.112584
     5  C   -0.003623  -0.009799  -0.052667   0.312736   5.168725   0.606183
     6  C   -0.004747   0.001003  -0.001101  -0.112584   0.606183   5.220770
     7  C    0.000143   0.009307  -0.062341  -0.098183  -0.113509   0.305413
     8  C   -0.000646   0.009721  -0.069139   0.345159  -0.075893  -0.071771
     9  C   -0.052385  -0.073664   0.347094  -0.072475   0.005368  -0.058612
    10  C    0.335195  -0.078873  -0.074525   0.012305   0.001351  -0.005107
    11  H    0.407026  -0.055692   0.009205  -0.000503  -0.000044   0.000024
    12  H   -0.047970   0.404054  -0.042492   0.001347   0.001292   0.000543
    13  H    0.000971  -0.032668   0.412978  -0.043460   0.007818  -0.000828
    14  H   -0.000011   0.000616  -0.033491   0.391787  -0.032684   0.004764
    15  H    0.000159   0.001730   0.002575  -0.037612   0.402043  -0.052248
    16  H    0.000302  -0.000229  -0.001440   0.009515  -0.050047   0.399992
    17  H   -0.000063  -0.000734   0.005551   0.012457   0.003998  -0.033148
    18  H   -0.000327   0.001102   0.002705  -0.054290   0.010964   0.010770
    19  H    0.000092  -0.000535   0.009040  -0.037479   0.001558   0.000704
    20  H    0.002475   0.009170  -0.044616   0.007377  -0.001289   0.007877
    21  H   -0.055237   0.001901   0.008087   0.000921   0.000783   0.006349
    22  H   -0.047777   0.002180   0.005425  -0.001279   0.000258   0.000269
               7          8          9         10         11         12
     1  C    0.000143  -0.000646  -0.052385   0.335195   0.407026  -0.047970
     2  C    0.009307   0.009721  -0.073664  -0.078873  -0.055692   0.404054
     3  C   -0.062341  -0.069139   0.347094  -0.074525   0.009205  -0.042492
     4  C   -0.098183   0.345159  -0.072475   0.012305  -0.000503   0.001347
     5  C   -0.113509  -0.075893   0.005368   0.001351  -0.000044   0.001292
     6  C    0.305413  -0.071771  -0.058612  -0.005107   0.000024   0.000543
     7  C    5.117440   0.341934   0.326279  -0.043492  -0.000396  -0.000691
     8  C    0.341934   5.085974  -0.066661   0.008850   0.000091  -0.000199
     9  C    0.326279  -0.066661   5.175615   0.318677   0.007476   0.007094
    10  C   -0.043492   0.008850   0.318677   5.042631  -0.041107   0.007091
    11  H   -0.000396   0.000091   0.007476  -0.041107   0.556432  -0.005566
    12  H   -0.000691  -0.000199   0.007094   0.007091  -0.005566   0.540382
    13  H    0.005964  -0.005495  -0.039775   0.007450  -0.000417  -0.000449
    14  H    0.012056  -0.033775   0.005687  -0.000404   0.000021   0.000641
    15  H    0.009880   0.005458  -0.001578  -0.000119   0.000002  -0.000220
    16  H   -0.039069   0.005584   0.003372   0.000135   0.000005   0.000002
    17  H    0.394793  -0.032938  -0.032875  -0.001160   0.000020   0.000015
    18  H   -0.052275   0.424906   0.002173   0.000471  -0.000002   0.000015
    19  H   -0.038604   0.407741   0.009061  -0.000440  -0.000005   0.000000
    20  H   -0.035769  -0.005383   0.405116  -0.025893  -0.000301  -0.000213
    21  H   -0.003216   0.000386  -0.058723   0.421565  -0.001107  -0.000272
    22  H    0.004631  -0.000371  -0.038343   0.415688  -0.001232  -0.000410
              13         14         15         16         17         18
     1  C    0.000971  -0.000011   0.000159   0.000302  -0.000063  -0.000327
     2  C   -0.032668   0.000616   0.001730  -0.000229  -0.000734   0.001102
     3  C    0.412978  -0.033491   0.002575  -0.001440   0.005551   0.002705
     4  C   -0.043460   0.391787  -0.037612   0.009515   0.012457  -0.054290
     5  C    0.007818  -0.032684   0.402043  -0.050047   0.003998   0.010964
     6  C   -0.000828   0.004764  -0.052248   0.399992  -0.033148   0.010770
     7  C    0.005964   0.012056   0.009880  -0.039069   0.394793  -0.052275
     8  C   -0.005495  -0.033775   0.005458   0.005584  -0.032938   0.424906
     9  C   -0.039775   0.005687  -0.001578   0.003372  -0.032875   0.002173
    10  C    0.007450  -0.000404  -0.000119   0.000135  -0.001160   0.000471
    11  H   -0.000417   0.000021   0.000002   0.000005   0.000020  -0.000002
    12  H   -0.000449   0.000641  -0.000220   0.000002   0.000015   0.000015
    13  H    0.546861  -0.003909  -0.000202   0.000073  -0.000367  -0.000026
    14  H   -0.003909   0.586034  -0.002325  -0.000299  -0.000209  -0.002859
    15  H   -0.000202  -0.002325   0.536884  -0.005177  -0.000305  -0.000193
    16  H    0.000073  -0.000299  -0.005177   0.532690  -0.002273  -0.000184
    17  H   -0.000367  -0.000209  -0.000305  -0.002273   0.579902  -0.003002
    18  H   -0.000026  -0.002859  -0.000193  -0.000184  -0.003002   0.566327
    19  H   -0.000088  -0.003557  -0.000113  -0.000072  -0.003449  -0.026639
    20  H   -0.010826  -0.000364   0.000066  -0.000259  -0.004285  -0.000316
    21  H   -0.000737   0.000023  -0.000002  -0.001053   0.001652  -0.000064
    22  H    0.000716   0.000025   0.000005  -0.000011   0.000005   0.000002
              19         20         21         22
     1  C    0.000092   0.002475  -0.055237  -0.047777
     2  C   -0.000535   0.009170   0.001901   0.002180
     3  C    0.009040  -0.044616   0.008087   0.005425
     4  C   -0.037479   0.007377   0.000921  -0.001279
     5  C    0.001558  -0.001289   0.000783   0.000258
     6  C    0.000704   0.007877   0.006349   0.000269
     7  C   -0.038604  -0.035769  -0.003216   0.004631
     8  C    0.407741  -0.005383   0.000386  -0.000371
     9  C    0.009061   0.405116  -0.058723  -0.038343
    10  C   -0.000440  -0.025893   0.421565   0.415688
    11  H   -0.000005  -0.000301  -0.001107  -0.001232
    12  H    0.000000  -0.000213  -0.000272  -0.000410
    13  H   -0.000088  -0.010826  -0.000737   0.000716
    14  H   -0.003557  -0.000364   0.000023   0.000025
    15  H   -0.000113   0.000066  -0.000002   0.000005
    16  H   -0.000072  -0.000259  -0.001053  -0.000011
    17  H   -0.003449  -0.004285   0.001652   0.000005
    18  H   -0.026639  -0.000316  -0.000064   0.000002
    19  H    0.560153  -0.000135  -0.000047   0.000010
    20  H   -0.000135   0.551673   0.004143  -0.012150
    21  H   -0.000047   0.004143   0.573965  -0.031358
    22  H    0.000010  -0.012150  -0.031358   0.577662
          Atomic-Atomic Spin Densities.
               1          2          3          4          5          6
     1  C    0.000000   0.000000   0.000000   0.000000   0.000000   0.000000
     2  C    0.000000   0.000000   0.000000   0.000000   0.000000   0.000000
     3  C    0.000000   0.000000   0.000000   0.000000   0.000000   0.000000
     4  C    0.000000   0.000000   0.000000   0.000000   0.000000   0.000000
     5  C    0.000000   0.000000   0.000000   0.000000   0.000000   0.000000
     6  C    0.000000   0.000000   0.000000   0.000000   0.000000   0.000000
     7  C    0.000000   0.000000   0.000000   0.000000   0.000000   0.000000
     8  C    0.000000   0.000000   0.000000   0.000000   0.000000   0.000000
     9  C    0.000000   0.000000   0.000000   0.000000   0.000000   0.000000
    10  C    0.000000   0.000000   0.000000   0.000000   0.000000   0.000000
    11  H    0.000000   0.000000   0.000000   0.000000   0.000000   0.000000
    12  H    0.000000   0.000000   0.000000   0.000000   0.000000   0.000000
    13  H    0.000000   0.000000   0.000000   0.000000   0.000000   0.000000
    14  H    0.000000   0.000000   0.000000   0.000000   0.000000   0.000000
    15  H    0.000000   0.000000   0.000000   0.000000   0.000000   0.000000
    16  H    0.000000   0.000000   0.000000   0.000000   0.000000   0.000000
    17  H    0.000000   0.000000   0.000000   0.000000   0.000000   0.000000
    18  H    0.000000   0.000000   0.000000   0.000000   0.000000   0.000000
    19  H    0.000000   0.000000   0.000000   0.000000   0.000000   0.000000
    20  H    0.000000   0.000000   0.000000   0.000000   0.000000   0.000000
    21  H    0.000000   0.000000   0.000000   0.000000   0.000000   0.000000
    22  H    0.000000   0.000000   0.000000   0.000000   0.000000   0.000000
               7          8          9         10         11         12
     1  C    0.000000   0.000000   0.000000   0.000000   0.000000   0.000000
     2  C    0.000000   0.000000   0.000000   0.000000   0.000000   0.000000
     3  C    0.000000   0.000000   0.000000   0.000000   0.000000   0.000000
     4  C    0.000000   0.000000   0.000000   0.000000   0.000000   0.000000
     5  C    0.000000   0.000000   0.000000   0.000000   0.000000   0.000000
     6  C    0.000000   0.000000   0.000000   0.000000   0.000000   0.000000
     7  C    0.000000   0.000000   0.000000   0.000000   0.000000   0.000000
     8  C    0.000000   0.000000   0.000000   0.000000   0.000000   0.000000
     9  C    0.000000   0.000000   0.000000   0.000000   0.000000   0.000000
    10  C    0.000000   0.000000   0.000000   0.000000   0.000000   0.000000
    11  H    0.000000   0.000000   0.000000   0.000000   0.000000   0.000000
    12  H    0.000000   0.000000   0.000000   0.000000   0.000000   0.000000
    13  H    0.000000   0.000000   0.000000   0.000000   0.000000   0.000000
    14  H    0.000000   0.000000   0.000000   0.000000   0.000000   0.000000
    15  H    0.000000   0.000000   0.000000   0.000000   0.000000   0.000000
    16  H    0.000000   0.000000   0.000000   0.000000   0.000000   0.000000
    17  H    0.000000   0.000000   0.000000   0.000000   0.000000   0.000000
    18  H    0.000000   0.000000   0.000000   0.000000   0.000000   0.000000
    19  H    0.000000   0.000000   0.000000   0.000000   0.000000   0.000000
    20  H    0.000000   0.000000   0.000000   0.000000   0.000000   0.000000
    21  H    0.000000   0.000000   0.000000   0.000000   0.000000   0.000000
    22  H    0.000000   0.000000   0.000000   0.000000   0.000000   0.000000
              13         14         15         16         17         18
     1  C    0.000000   0.000000   0.000000   0.000000   0.000000   0.000000
     2  C    0.000000   0.000000   0.000000   0.000000   0.000000   0.000000
     3  C    0.000000   0.000000   0.000000   0.000000   0.000000   0.000000
     4  C    0.000000   0.000000   0.000000   0.000000   0.000000   0.000000
     5  C    0.000000   0.000000   0.000000   0.000000   0.000000   0.000000
     6  C    0.000000   0.000000   0.000000   0.000000   0.000000   0.000000
     7  C    0.000000   0.000000   0.000000   0.000000   0.000000   0.000000
     8  C    0.000000   0.000000   0.000000   0.000000   0.000000   0.000000
     9  C    0.000000   0.000000   0.000000   0.000000   0.000000   0.000000
    10  C    0.000000   0.000000   0.000000   0.000000   0.000000   0.000000
    11  H    0.000000   0.000000   0.000000   0.000000   0.000000   0.000000
    12  H    0.000000   0.000000   0.000000   0.000000   0.000000   0.000000
    13  H    0.000000   0.000000   0.000000   0.000000   0.000000   0.000000
    14  H    0.000000   0.000000   0.000000   0.000000   0.000000   0.000000
    15  H    0.000000   0.000000   0.000000   0.000000   0.000000   0.000000
    16  H    0.000000   0.000000   0.000000   0.000000   0.000000   0.000000
    17  H    0.000000   0.000000   0.000000   0.000000   0.000000   0.000000
    18  H    0.000000   0.000000   0.000000   0.000000   0.000000   0.000000
    19  H    0.000000   0.000000   0.000000   0.000000   0.000000   0.000000
    20  H    0.000000   0.000000   0.000000   0.000000   0.000000   0.000000
    21  H    0.000000   0.000000   0.000000   0.000000   0.000000   0.000000
    22  H    0.000000   0.000000   0.000000   0.000000   0.000000   0.000000
              19         20         21         22
     1  C    0.000000   0.000000   0.000000   0.000000
     2  C    0.000000   0.000000   0.000000   0.000000
     3  C    0.000000   0.000000   0.000000   0.000000
     4  C    0.000000   0.000000   0.000000   0.000000
     5  C    0.000000   0.000000   0.000000   0.000000
     6  C    0.000000   0.000000   0.000000   0.000000
     7  C    0.000000   0.000000   0.000000   0.000000
     8  C    0.000000   0.000000   0.000000   0.000000
     9  C    0.000000   0.000000   0.000000   0.000000
    10  C    0.000000   0.000000   0.000000   0.000000
    11  H    0.000000   0.000000   0.000000   0.000000
    12  H    0.000000   0.000000   0.000000   0.000000
    13  H    0.000000   0.000000   0.000000   0.000000
    14  H    0.000000   0.000000   0.000000   0.000000
    15  H    0.000000   0.000000   0.000000   0.000000
    16  H    0.000000   0.000000   0.000000   0.000000
    17  H    0.000000   0.000000   0.000000   0.000000
    18  H    0.000000   0.000000   0.000000   0.000000
    19  H    0.000000   0.000000   0.000000   0.000000
    20  H    0.000000   0.000000   0.000000   0.000000
    21  H    0.000000   0.000000   0.000000   0.000000
    22  H    0.000000   0.000000   0.000000   0.000000
 Mulliken charges and spin densities:
               1          2
     1  C   -0.102255   0.000000
     2  C   -0.205446   0.000000
     3  C   -0.112580   0.000000
     4  C   -0.032081   0.000000
     5  C   -0.183520   0.000000
     6  C   -0.224514   0.000000
     7  C   -0.040296   0.000000
     8  C   -0.273533   0.000000
     9  C   -0.117919   0.000000
    10  C   -0.300288   0.000000
    11  H    0.126070   0.000000
    12  H    0.136007   0.000000
    13  H    0.156417   0.000000
    14  H    0.112235   0.000000
    15  H    0.141291   0.000000
    16  H    0.148442   0.000000
    17  H    0.116417   0.000000
    18  H    0.120744   0.000000
    19  H    0.122805   0.000000
    20  H    0.153903   0.000000
    21  H    0.132042   0.000000
    22  H    0.126059   0.000000
 Sum of Mulliken charges =   0.00000   0.00000
 Mulliken charges and spin densities with hydrogens summed into heavy atoms:
               1          2
     1  C    0.023814   0.000000
     2  C   -0.069439   0.000000
     3  C    0.043837   0.000000
     4  C    0.080154   0.000000
     5  C   -0.042229   0.000000
     6  C   -0.076072   0.000000
     7  C    0.076121   0.000000
     8  C   -0.029984   0.000000
     9  C    0.035984   0.000000
    10  C   -0.042186   0.000000
 Electronic spatial extent (au):  <R**2>=           1099.7844
 Charge=              0.0000 electrons
 Dipole moment (field-independent basis, Debye):
    X=             -0.1468    Y=             -0.0909    Z=             -0.1845  Tot=              0.2527
 Quadrupole moment (field-independent basis, Debye-Ang):
   XX=            -61.9021   YY=            -58.7214   ZZ=            -59.8655
   XY=             -0.4307   XZ=              0.6220   YZ=              0.0510
 Traceless Quadrupole moment (field-independent basis, Debye-Ang):
   XX=             -1.7391   YY=              1.4416   ZZ=              0.2975
   XY=             -0.4307   XZ=              0.6220   YZ=              0.0510
 Octapole moment (field-independent basis, Debye-Ang**2):
  XXX=              3.8698  YYY=              3.7285  ZZZ=              0.2711  XYY=             -0.8342
  XXY=             -0.9244  XXZ=              2.6184  XZZ=             -1.1557  YZZ=             -1.4481
  YYZ=              1.9136  XYZ=              1.0143
 Hexadecapole moment (field-independent basis, Debye-Ang**3):
 XXXX=           -802.8978 YYYY=           -402.3354 ZZZZ=           -321.9352 XXXY=             -3.6698
 XXXZ=             19.0012 YYYX=              5.8808 YYYZ=              1.3431 ZZZX=             -5.8966
 ZZZY=             -0.8932 XXYY=           -199.0445 XXZZ=           -192.2916 YYZZ=           -118.8422
 XXYZ=              4.9290 YYXZ=             -2.4277 ZZXY=             -2.7590
 N-N= 5.388287890723D+02 E-N=-1.976971700734D+03  KE= 3.857140998680D+02
                          Isotropic Fermi Contact Couplings
        Atom                 a.u.       MegaHertz       Gauss      10(-4) cm-1
     1  C(13)              0.00000       0.00000       0.00000       0.00000
     2  C(13)              0.00000       0.00000       0.00000       0.00000
     3  C(13)              0.00000       0.00000       0.00000       0.00000
     4  C(13)              0.00000       0.00000       0.00000       0.00000
     5  C(13)              0.00000       0.00000       0.00000       0.00000
     6  C(13)              0.00000       0.00000       0.00000       0.00000
     7  C(13)              0.00000       0.00000       0.00000       0.00000
     8  C(13)              0.00000       0.00000       0.00000       0.00000
     9  C(13)              0.00000       0.00000       0.00000       0.00000
    10  C(13)              0.00000       0.00000       0.00000       0.00000
    11  H(1)               0.00000       0.00000       0.00000       0.00000
    12  H(1)               0.00000       0.00000       0.00000       0.00000
    13  H(1)               0.00000       0.00000       0.00000       0.00000
    14  H(1)               0.00000       0.00000       0.00000       0.00000
    15  H(1)               0.00000       0.00000       0.00000       0.00000
    16  H(1)               0.00000       0.00000       0.00000       0.00000
    17  H(1)               0.00000       0.00000       0.00000       0.00000
    18  H(1)               0.00000       0.00000       0.00000       0.00000
    19  H(1)               0.00000       0.00000       0.00000       0.00000
    20  H(1)               0.00000       0.00000       0.00000       0.00000
    21  H(1)               0.00000       0.00000       0.00000       0.00000
    22  H(1)               0.00000       0.00000       0.00000       0.00000
 --------------------------------------------------------
       Center         ----  Spin Dipole Couplings  ----
                      3XX-RR        3YY-RR        3ZZ-RR
 --------------------------------------------------------
     1   Atom        0.000000      0.000000      0.000000
     2   Atom        0.000000      0.000000      0.000000
     3   Atom        0.000000      0.000000      0.000000
     4   Atom        0.000000      0.000000      0.000000
     5   Atom        0.000000      0.000000      0.000000
     6   Atom        0.000000      0.000000      0.000000
     7   Atom        0.000000      0.000000      0.000000
     8   Atom        0.000000      0.000000      0.000000
     9   Atom        0.000000      0.000000      0.000000
    10   Atom        0.000000      0.000000      0.000000
    11   Atom        0.000000      0.000000      0.000000
    12   Atom        0.000000      0.000000      0.000000
    13   Atom        0.000000      0.000000      0.000000
    14   Atom        0.000000      0.000000      0.000000
    15   Atom        0.000000      0.000000      0.000000
    16   Atom        0.000000      0.000000      0.000000
    17   Atom        0.000000      0.000000      0.000000
    18   Atom        0.000000      0.000000      0.000000
    19   Atom        0.000000      0.000000      0.000000
    20   Atom        0.000000      0.000000      0.000000
    21   Atom        0.000000      0.000000      0.000000
    22   Atom        0.000000      0.000000      0.000000
 --------------------------------------------------------
                        XY            XZ            YZ
 --------------------------------------------------------
     1   Atom        0.000000      0.000000      0.000000
     2   Atom        0.000000      0.000000      0.000000
     3   Atom        0.000000      0.000000      0.000000
     4   Atom        0.000000      0.000000      0.000000
     5   Atom        0.000000      0.000000      0.000000
     6   Atom        0.000000      0.000000      0.000000
     7   Atom        0.000000      0.000000      0.000000
     8   Atom        0.000000      0.000000      0.000000
     9   Atom        0.000000      0.000000      0.000000
    10   Atom        0.000000      0.000000      0.000000
    11   Atom        0.000000      0.000000      0.000000
    12   Atom        0.000000      0.000000      0.000000
    13   Atom        0.000000      0.000000      0.000000
    14   Atom        0.000000      0.000000      0.000000
    15   Atom        0.000000      0.000000      0.000000
    16   Atom        0.000000      0.000000      0.000000
    17   Atom        0.000000      0.000000      0.000000
    18   Atom        0.000000      0.000000      0.000000
    19   Atom        0.000000      0.000000      0.000000
    20   Atom        0.000000      0.000000      0.000000
    21   Atom        0.000000      0.000000      0.000000
    22   Atom        0.000000      0.000000      0.000000
 --------------------------------------------------------


 ---------------------------------------------------------------------------------
              Anisotropic Spin Dipole Couplings in Principal Axis System
 ---------------------------------------------------------------------------------

       Atom             a.u.   MegaHertz   Gauss  10(-4) cm-1        Axes

              Baa     0.0000     0.000     0.000     0.000  1.0000  0.0000  0.0000
     1 C(13)  Bbb     0.0000     0.000     0.000     0.000  0.0000  1.0000  0.0000
              Bcc     0.0000     0.000     0.000     0.000  0.0000  0.0000  1.0000
 
              Baa     0.0000     0.000     0.000     0.000  1.0000  0.0000  0.0000
     2 C(13)  Bbb     0.0000     0.000     0.000     0.000  0.0000  1.0000  0.0000
              Bcc     0.0000     0.000     0.000     0.000  0.0000  0.0000  1.0000
 
              Baa     0.0000     0.000     0.000     0.000  1.0000  0.0000  0.0000
     3 C(13)  Bbb     0.0000     0.000     0.000     0.000  0.0000  1.0000  0.0000
              Bcc     0.0000     0.000     0.000     0.000  0.0000  0.0000  1.0000
 
              Baa     0.0000     0.000     0.000     0.000  1.0000  0.0000  0.0000
     4 C(13)  Bbb     0.0000     0.000     0.000     0.000  0.0000  1.0000  0.0000
              Bcc     0.0000     0.000     0.000     0.000  0.0000  0.0000  1.0000
 
              Baa     0.0000     0.000     0.000     0.000  1.0000  0.0000  0.0000
     5 C(13)  Bbb     0.0000     0.000     0.000     0.000  0.0000  1.0000  0.0000
              Bcc     0.0000     0.000     0.000     0.000  0.0000  0.0000  1.0000
 
              Baa     0.0000     0.000     0.000     0.000  1.0000  0.0000  0.0000
     6 C(13)  Bbb     0.0000     0.000     0.000     0.000  0.0000  1.0000  0.0000
              Bcc     0.0000     0.000     0.000     0.000  0.0000  0.0000  1.0000
 
              Baa     0.0000     0.000     0.000     0.000  1.0000  0.0000  0.0000
     7 C(13)  Bbb     0.0000     0.000     0.000     0.000  0.0000  1.0000  0.0000
              Bcc     0.0000     0.000     0.000     0.000  0.0000  0.0000  1.0000
 
              Baa     0.0000     0.000     0.000     0.000  1.0000  0.0000  0.0000
     8 C(13)  Bbb     0.0000     0.000     0.000     0.000  0.0000  1.0000  0.0000
              Bcc     0.0000     0.000     0.000     0.000  0.0000  0.0000  1.0000
 
              Baa     0.0000     0.000     0.000     0.000  1.0000  0.0000  0.0000
     9 C(13)  Bbb     0.0000     0.000     0.000     0.000  0.0000  1.0000  0.0000
              Bcc     0.0000     0.000     0.000     0.000  0.0000  0.0000  1.0000
 
              Baa     0.0000     0.000     0.000     0.000  1.0000  0.0000  0.0000
    10 C(13)  Bbb     0.0000     0.000     0.000     0.000  0.0000  1.0000  0.0000
              Bcc     0.0000     0.000     0.000     0.000  0.0000  0.0000  1.0000
 
              Baa     0.0000     0.000     0.000     0.000  1.0000  0.0000  0.0000
    11 H(1)   Bbb     0.0000     0.000     0.000     0.000  0.0000  1.0000  0.0000
              Bcc     0.0000     0.000     0.000     0.000  0.0000  0.0000  1.0000
 
              Baa     0.0000     0.000     0.000     0.000  1.0000  0.0000  0.0000
    12 H(1)   Bbb     0.0000     0.000     0.000     0.000  0.0000  1.0000  0.0000
              Bcc     0.0000     0.000     0.000     0.000  0.0000  0.0000  1.0000
 
              Baa     0.0000     0.000     0.000     0.000  1.0000  0.0000  0.0000
    13 H(1)   Bbb     0.0000     0.000     0.000     0.000  0.0000  1.0000  0.0000
              Bcc     0.0000     0.000     0.000     0.000  0.0000  0.0000  1.0000
 
              Baa     0.0000     0.000     0.000     0.000  1.0000  0.0000  0.0000
    14 H(1)   Bbb     0.0000     0.000     0.000     0.000  0.0000  1.0000  0.0000
              Bcc     0.0000     0.000     0.000     0.000  0.0000  0.0000  1.0000
 
              Baa     0.0000     0.000     0.000     0.000  1.0000  0.0000  0.0000
    15 H(1)   Bbb     0.0000     0.000     0.000     0.000  0.0000  1.0000  0.0000
              Bcc     0.0000     0.000     0.000     0.000  0.0000  0.0000  1.0000
 
              Baa     0.0000     0.000     0.000     0.000  1.0000  0.0000  0.0000
    16 H(1)   Bbb     0.0000     0.000     0.000     0.000  0.0000  1.0000  0.0000
              Bcc     0.0000     0.000     0.000     0.000  0.0000  0.0000  1.0000
 
              Baa     0.0000     0.000     0.000     0.000  1.0000  0.0000  0.0000
    17 H(1)   Bbb     0.0000     0.000     0.000     0.000  0.0000  1.0000  0.0000
              Bcc     0.0000     0.000     0.000     0.000  0.0000  0.0000  1.0000
 
              Baa     0.0000     0.000     0.000     0.000  1.0000  0.0000  0.0000
    18 H(1)   Bbb     0.0000     0.000     0.000     0.000  0.0000  1.0000  0.0000
              Bcc     0.0000     0.000     0.000     0.000  0.0000  0.0000  1.0000
 
              Baa     0.0000     0.000     0.000     0.000  1.0000  0.0000  0.0000
    19 H(1)   Bbb     0.0000     0.000     0.000     0.000  0.0000  1.0000  0.0000
              Bcc     0.0000     0.000     0.000     0.000  0.0000  0.0000  1.0000
 
              Baa     0.0000     0.000     0.000     0.000  1.0000  0.0000  0.0000
    20 H(1)   Bbb     0.0000     0.000     0.000     0.000  0.0000  1.0000  0.0000
              Bcc     0.0000     0.000     0.000     0.000  0.0000  0.0000  1.0000
 
              Baa     0.0000     0.000     0.000     0.000  1.0000  0.0000  0.0000
    21 H(1)   Bbb     0.0000     0.000     0.000     0.000  0.0000  1.0000  0.0000
              Bcc     0.0000     0.000     0.000     0.000  0.0000  0.0000  1.0000
 
              Baa     0.0000     0.000     0.000     0.000  1.0000  0.0000  0.0000
    22 H(1)   Bbb     0.0000     0.000     0.000     0.000  0.0000  1.0000  0.0000
              Bcc     0.0000     0.000     0.000     0.000  0.0000  0.0000  1.0000
 

 ---------------------------------------------------------------------------------

 PrsmSu:  requested number of processors reduced to:  25 ShMem   1 Linda.
 Calling FoFJK, ICntrl=      2127 FMM=F ISym2X=0 I1Cent= 0 IOpClX= 1 NMat=1 NMatS=1 NMatT=0.
 ***** Axes restored to original set *****
 -------------------------------------------------------------------
 Center     Atomic                   Forces (Hartrees/Bohr)
 Number     Number              X              Y              Z
 -------------------------------------------------------------------
      1        6           0.003069677    0.010394129   -0.001287300
      2        6           0.007421496    0.001508842    0.001306222
      3        6           0.003706090    0.006279334   -0.014419876
      4        6          -0.013639518    0.023472132   -0.017695273
      5        6          -0.004214010   -0.000565699    0.008765476
      6        6          -0.004427425    0.006798845    0.005416118
      7        6          -0.004952487   -0.026161061    0.009825472
      8        6          -0.022129023   -0.012319546   -0.019888574
      9        6           0.004852104   -0.014129256   -0.001998419
     10        6           0.007870410   -0.012573954    0.004651376
     11        1          -0.001527476   -0.002639739    0.001174345
     12        1          -0.002044011   -0.001896856   -0.001383992
     13        1          -0.006447006    0.003142950    0.011353123
     14        1           0.007908539   -0.008739814    0.007975086
     15        1           0.005845443   -0.000775508   -0.003442609
     16        1           0.005389186   -0.001825098   -0.002656461
     17        1           0.006844787    0.011905234   -0.003578896
     18        1          -0.000443197    0.006341961    0.011502070
     19        1           0.016499159   -0.001211474   -0.004010977
     20        1          -0.004716371    0.010334810    0.010950064
     21        1           0.003960225   -0.001843910   -0.010653010
     22        1          -0.008826595    0.004503674    0.008096036
 -------------------------------------------------------------------
 Cartesian Forces:  Max     0.026161061 RMS     0.009284425

 GradGradGradGradGradGradGradGradGradGradGradGradGradGradGradGradGradGrad
 Berny optimization.
 FormGI is forming the generalized inverse of G from B-inverse, IUseBI=4.
 Internal  Forces:  Max     0.017025597 RMS     0.003908114
 Search for a local minimum.
 Step number   1 out of a maximum of  132
 All quantities printed in internal units (Hartrees-Bohrs-Radians)
 Mixed Optimization -- RFO/linear search
 Second derivative matrix not updated -- first step.
 ITU=  0
     Eigenvalues ---    0.00434   0.01045   0.01213   0.01407   0.01684
     Eigenvalues ---    0.01880   0.01929   0.01947   0.02623   0.02888
     Eigenvalues ---    0.03735   0.03981   0.04217   0.04317   0.04811
     Eigenvalues ---    0.05098   0.05215   0.05517   0.05586   0.05755
     Eigenvalues ---    0.05895   0.06465   0.06943   0.07258   0.07735
     Eigenvalues ---    0.08407   0.09218   0.09710   0.11259   0.12388
     Eigenvalues ---    0.15749   0.15928   0.15999   0.16000   0.16089
[...]
 -0.00004654,0.00010363,-0.00053290,0.00000987,-0.00026214,0.00000945,0
 .00010784,-0.00106607,-0.00023964,-0.00009796,-0.00208870,0.00106868,0
 .00338559,0.00179277,-0.00018274,-0.00112280,0.05854788,0.32152735,0.0
 0561567,0.02128998,0.00067404,0.00523624,0.07567930,-0.06971536,-0.000
 58466,-0.01179204,0.00656588,0.00007427,0.00008289,0.00023617,-0.00002
 282,0.00015129,0.00001174,-0.00001432,-0.00014306,-0.00003853,-0.00006
 589,-0.00053018,0.00028463,0.00004819,-0.00012605,0.00003470,-0.003162
 62,-0.00079772,-0.00066460,-0.00711436,0.00390593,0.00324846,0.0028052
 2,-0.00207203,-0.00237632,-0.00412107,-0.08729908,0.06207773,-0.002338
 81,-0.00255280,-0.00062185,0.00169655,-0.00159339,-0.02616249,-0.04440
 602,-0.00016592,0.02838149,-0.00765878,0.00442792,0.03052082,-0.005306
 41,0.00051573,-0.00048571,-0.00019172,-0.00036127,0.00111107,-0.001473
 58,0.00023880,0.00071230,0.00172950,0.00082403,0.00040677,0.00026660,0
 .00005247,-0.00292005,0.00018401,-0.00020965,-0.00153061,-0.00173228,0
 .00105607,0.00082774,0.00023325,-0.00002220,0.00089137,0.05636992,-0.0
 0201959,-0.00232643,-0.00080619,0.00285882,0.00012266,-0.01962516,-0.0
 0034803,-0.04912258,-0.02820761,0.00392419,-0.00197958,-0.01251906,0.0
 0250513,0.00044048,0.00007134,0.00033338,-0.00081414,-0.00083023,0.000
 65082,-0.00287549,0.00199487,-0.00037300,0.00038906,0.00049178,-0.0032
 8808,0.00213338,0.02515954,-0.00047178,-0.00200247,0.00220142,-0.00086
 087,0.00088078,0.00049766,0.00016823,0.00006241,0.00074446,-0.00223004
 ,0.05326636,-0.00075209,-0.00157058,0.00000971,-0.00149156,-0.00121331
 ,-0.01090548,0.03061900,-0.02510815,-0.30094894,0.00069233,-0.00084724
 ,-0.00552604,0.00088191,-0.00037396,0.00057015,0.00005167,-0.00008847,
 0.00059890,0.00008466,0.00094596,-0.00032093,-0.00067054,-0.00005748,-
 0.00025752,0.00092451,-0.00295101,-0.00810867,0.00053304,0.00045833,-0
 .00170275,-0.00068775,0.00034593,0.00022816,-0.00053587,-0.00037576,-0
 .00001361,-0.02995754,0.02982393,0.32442770,-0.00017207,0.00004912,-0.
 00060026,0.00096712,0.00060039,0.00069018,-0.00724342,0.02011963,-0.01
 725587,-0.07689805,0.06673191,-0.05928348,-0.00017329,-0.00343040,0.00
 278125,0.00073862,-0.00002761,0.00030581,-0.00176681,-0.00388366,0.000
 30259,0.00661935,-0.00924260,0.01199474,-0.00449663,0.00048250,0.00167
 136,-0.00019592,0.00074087,0.00007379,0.00002687,-0.00012743,-0.000183
 22,-0.00040053,-0.00034634,-0.00009997,0.00159453,-0.00069080,0.000338
 24,0.08016616,0.00011235,0.00003995,0.00010615,0.00036155,-0.00003475,
 -0.00017805,-0.00037729,-0.00318979,0.00252698,0.06577581,-0.18960673,
 0.11923713,-0.00490779,0.00893945,-0.00585841,0.00076285,-0.00061545,-
 0.00279197,-0.00216194,-0.00524359,-0.00015832,0.01120335,-0.01175570,
 0.01467340,0.00007264,-0.00044471,0.00042374,0.00011497,-0.00017595,-0
 .00016718,-0.00000243,0.00005170,0.00003731,0.00016472,0.00003247,0.00
 010554,0.00018371,0.00005121,-0.00028080,-0.07290503,0.20078811,0.0000
 1988,-0.00010639,0.00011049,-0.00034884,0.00016788,-0.00014559,0.00218
 706,-0.00616162,0.00424694,-0.05740170,0.11860172,-0.15057450,-0.00955
 538,0.02287116,-0.01245203,-0.00004878,-0.00085238,-0.00621480,-0.0002
 8155,-0.00130221,-0.00072959,0.00309628,-0.00407157,0.00294684,0.00166
 608,-0.00103089,0.00058846,0.00004303,-0.00019830,0.00009467,0.0000253
 2,0.00001622,0.00000313,-0.00011266,0.00000889,-0.00002367,-0.00061684
 ,0.00002536,0.00053391,0.05976730,-0.12950103,0.16035435,0.00019107,-0
 .00018585,-0.00046275,0.00000522,-0.00010207,0.00013751,-0.00062518,0.
 00007928,-0.00053079,0.00263939,0.00161439,0.00038445,-0.03501771,0.00
 209836,0.00387876,0.00605222,0.00336135,0.00152492,0.01052970,0.002065
 27,-0.00130307,-0.00018757,-0.00091543,-0.00000970,0.00035405,-0.00219
 972,-0.00134483,-0.00008540,0.00023003,-0.00012388,-0.00006357,0.00001
 789,0.00001237,-0.00013907,-0.00003903,0.00007880,-0.00000288,-0.00011
 841,0.00008023,-0.00006048,-0.00002828,0.00023602,0.02228090,-0.000065
 51,-0.00004533,0.00034021,-0.00026917,0.00006108,-0.00025946,0.0000633
 6,0.00005593,-0.00019003,-0.00024788,0.00274506,0.00293258,0.00526672,
 -0.29368830,-0.10723440,0.00060417,-0.01431951,-0.01587209,-0.00040923
 ,-0.00348411,0.00308431,0.00037829,0.00011869,0.00079912,-0.00025856,0
 .00002557,0.00007738,0.00002341,0.00000991,-0.00010496,0.00003788,0.00
 003048,0.00001218,0.00004543,0.00003972,-0.00006257,0.00004554,-0.0000
 1845,0.00005234,0.00011716,0.00001549,-0.00065553,-0.00563917,0.308229
 81,0.00025526,0.00022917,0.00016800,-0.00000092,-0.00020699,0.00009781
 ,-0.00082951,-0.00013363,-0.00135528,-0.00098242,-0.02200505,-0.001071
 06,0.00512099,-0.11243512,-0.10637726,-0.00086561,0.01557082,0.0119343
 7,-0.00069204,0.00300449,-0.00200796,0.00127707,-0.00092346,-0.0048014
 8,0.00009504,0.00049101,0.00003132,0.00001261,-0.00003109,0.00002922,0
 .00002747,-0.00002843,0.00002741,0.00021105,0.00009060,-0.00004509,0.0
 0058305,-0.00016888,-0.00013968,-0.00033145,0.00099537,0.00091619,-0.0
 0302488,0.11753056,0.10089722,-0.00004263,-0.00009419,-0.00017959,-0.0
 0004754,-0.00005476,-0.00001124,0.00005917,0.00029384,-0.00254921,0.01
 069884,-0.00039636,-0.00009928,0.00641875,-0.00050980,-0.00025915,-0.0
 3566922,0.00667817,-0.01464873,0.00241034,-0.00063188,0.00291967,-0.00
 036486,0.00072296,-0.00054972,-0.00036193,-0.00044678,0.00012139,-0.00
 012567,0.00006740,-0.00029630,-0.00002493,-0.00001550,0.00002266,-0.00
 001983,0.00000905,-0.00000399,0.00070173,-0.00020533,-0.00010957,0.000
 17976,0.00046294,0.00076366,-0.00626801,-0.00017911,-0.00000036,0.0234
 9587,-0.00001694,-0.00003010,0.00013015,0.00000555,0.00008016,0.000032
 50,0.00024708,-0.00025135,-0.00003844,0.00154981,-0.00531438,0.0019044
 3,0.00073198,0.00427454,0.02782248,0.00625128,-0.06026448,0.03728254,-
 0.00215323,0.00856100,-0.01743924,0.00100583,-0.00306689,-0.00316935,-
 0.00076782,-0.00095749,-0.00097402,0.00011769,0.00000931,0.00017419,-0
 .00000972,0.00003016,-0.00000736,0.00004273,0.00001463,0.00000626,-0.0
 0009872,0.00005916,0.00002801,-0.00016274,0.00064784,0.00148344,-0.000
 73109,0.00075718,-0.00102228,-0.00585431,0.05395034,0.00016500,0.00016
 164,0.00013219,-0.00005633,-0.00008534,-0.00003133,-0.00016951,-0.0001
 1037,0.00045496,-0.00137959,0.00195576,-0.00028717,-0.00005020,-0.0037
 5488,-0.00681685,-0.01235136,0.04271530,-0.33648440,-0.00203636,0.0068
 5067,-0.00704337,0.00109263,-0.00134258,-0.00146121,-0.00039389,-0.000
 72817,-0.00048869,-0.00020461,0.00023201,-0.00059724,0.00003387,0.0000
 2235,0.00000525,0.00003980,0.00001184,0.00001078,-0.00002924,0.0000312
 2,0.00008955,0.00031522,-0.00017809,-0.00052464,0.00007039,0.00055059,
 0.00046008,0.01500302,-0.04629675,0.35204070,0.00006823,-0.00026353,-0
 .00012788,0.00035463,-0.00073189,0.00049862,-0.00494157,0.00075362,0.0
 0176998,-0.00233321,0.00253570,-0.00329784,0.00087550,0.00040226,0.000
 03235,-0.00069022,0.00409701,-0.00159786,-0.05941551,-0.05851029,0.015
 68954,0.00568885,0.01743609,-0.00160474,-0.00439772,-0.02634312,0.0082
 2573,0.00069021,0.00040830,0.00098283,-0.00005888,-0.00002091,-0.00006
 873,-0.00025282,-0.00023246,-0.00024906,-0.00004412,-0.00086722,0.0004
 0882,0.00104513,0.00102741,-0.00000898,0.00016483,0.00038143,0.0000122
 5,0.00000705,-0.00030420,0.00000391,0.06112357,-0.00007629,-0.00010749
 ,-0.00009722,-0.00001691,0.00026969,0.00004219,0.00073673,0.00082619,-
 0.00027360,0.00089452,-0.00106668,0.00077380,-0.00019180,-0.00292451,-
 0.00231383,-0.00339124,-0.01398491,0.00807516,-0.05673666,-0.28447517,
 0.07190631,-0.00223553,-0.00481526,-0.00048568,0.00118164,0.00094892,-
 0.00077269,-0.00035730,0.00005884,0.00004442,0.00000631,-0.00000026,-0
 .00002485,-0.00000639,0.00006501,0.00001379,-0.00005616,-0.00005544,-0
 .00000825,-0.00039509,-0.00036547,0.00011862,0.00053636,-0.00068622,0.
 00053033,0.00014050,0.00049168,-0.00036712,0.06034359,0.30542705,0.000
 14719,0.00009099,0.00009526,-0.00006228,0.00028823,-0.00033605,0.00125
 664,0.00114989,-0.00064155,-0.00231999,0.00193404,-0.00425614,0.000756
 76,-0.00421764,-0.00402099,-0.00624321,-0.02184852,0.01089294,0.016085
 46,0.07240065,-0.07157685,0.00845183,0.01835289,-0.00306173,0.00033192
 ,0.00875390,-0.00314010,0.00009182,-0.00009231,-0.00003563,0.00003170,
 0.00001149,0.00004010,0.00013039,0.00005123,0.00009251,0.00003462,0.00
 048995,-0.00021619,0.00068003,0.00120862,0.00043082,0.00095715,-0.0010
 2848,0.00083104,-0.00000989,0.00134941,0.00042941,-0.02053427,-0.07781
 969,0.07329975,0.00005844,0.00002046,-0.00004317,0.00028106,0.00013335
 ,0.00012589,0.00009278,-0.00084519,-0.00069595,0.00015145,-0.00319483,
 -0.01019076,0.00054868,-0.00254931,-0.00069388,-0.00013108,0.00107314,
 -0.00290743,0.00090844,-0.00840348,-0.01081301,-0.05931439,0.01901255,
 0.03688623,0.00037190,-0.00011976,-0.00094291,0.00023218,0.00004038,0.
 00008371,0.00001478,0.00003216,0.00003741,0.00005281,0.00003681,0.0000
 1262,-0.00033358,-0.00038676,0.00011364,0.00021621,0.00028445,0.000344
 81,-0.00020965,0.00000834,-0.00065475,-0.00017652,-0.00070941,-0.00043
 943,0.00035233,0.00015379,0.00049894,0.05897724,0.00011272,0.00016894,
 -0.00001487,0.00000267,-0.00017257,0.00043154,0.00158096,0.00013145,-0
 .00092758,0.00408743,-0.01011846,-0.02507711,-0.00293257,-0.00431599,-
 0.00065096,0.00238134,-0.00175382,0.00117671,-0.00166096,0.00776269,0.
 01398550,0.01696980,-0.10203007,-0.10556334,-0.00064533,0.00068596,0.0
 0043818,-0.00016225,-0.00014162,0.00012220,0.00004909,-0.00005712,0.00
 001927,0.00003745,0.00002160,-0.00002312,-0.00054016,0.00014284,0.0005
 4546,0.00062346,0.00032340,0.00046717,-0.00035942,0.00011223,-0.001461
 68,-0.00028845,0.00069695,0.00044401,-0.00067025,0.00015430,-0.0004323
 9,-0.01860575,0.10880347,0.00014126,0.00002623,0.00033413,-0.00039813,
 0.00012499,0.00014483,0.00031857,0.00011339,0.00052470,0.00069466,0.00
 259063,0.00219369,0.00064103,0.00019860,-0.00149725,-0.00240468,0.0004
 8488,-0.00338751,0.00423062,-0.01174249,-0.01631784,0.03321494,-0.1058
 8368,-0.24667575,0.00155570,-0.00031426,-0.00008695,-0.00015175,0.0003
 6088,0.00006055,0.00010176,0.00001219,-0.00007218,0.00007861,0.0000126
 8,-0.00000959,-0.00034107,-0.00004452,0.00026424,-0.00036246,-0.000437
 81,0.00017655,-0.00053616,0.00002717,0.00014150,-0.00052431,-0.0010302
 0,-0.00050080,0.00029660,0.00040590,0.00027174,-0.03622071,0.11692519,
 0.26820310,-0.00036289,-0.00012166,-0.00049865,-0.00013047,0.00050532,
 0.00064804,-0.00159811,-0.00157871,-0.00134016,-0.00968456,0.00248606,
 0.00209226,0.00135689,-0.00017776,0.00093103,0.00125454,0.00113144,0.0
 0041569,-0.01260052,-0.00076165,0.00467655,-0.30241022,0.01262716,0.05
 792360,-0.00192023,-0.00024357,-0.00258362,-0.00041257,0.00006739,0.00
 093356,0.00003626,-0.00012374,-0.00017093,-0.00011625,-0.00009866,-0.0
 0005297,0.00014296,0.00006794,0.00014072,0.00027276,-0.00033858,0.0000
 9591,-0.00006972,-0.00005142,-0.00012448,-0.00005455,-0.00009340,-0.00
 011564,0.00032076,0.00030964,-0.00014898,-0.00165540,0.00003756,0.0002
 9162,0.32766559,-0.00020092,-0.00070726,0.00015738,-0.00158125,0.00139
 886,0.00057170,-0.00315198,-0.00466534,-0.00150060,-0.02715717,0.00241
 771,0.00397216,-0.00087980,-0.00003973,0.00172610,-0.00025526,-0.00027
 327,-0.00026029,0.01533202,-0.00072378,-0.00423769,0.01478756,-0.04638
 033,-0.00635534,0.00165455,-0.00105970,0.00326751,0.00067329,0.0004699
 0,-0.00058118,0.00018267,0.00012525,-0.00031541,0.00003125,-0.00005092
 ,-0.00001362,0.00011998,-0.00010792,0.00011151,0.00087448,0.00079457,0
 .00050271,0.00013880,-0.00001597,-0.00004255,-0.00006774,0.00008652,0.
 00003963,-0.00043491,-0.00004972,-0.00058088,0.01377527,-0.00048197,-0
 .00215704,-0.01372291,0.04903800,-0.00005013,0.00044689,-0.00009637,-0
 .00000551,-0.00041603,0.00032868,-0.00018949,0.00147936,-0.00000175,0.
 00212238,-0.00011444,-0.00229652,-0.00106938,-0.00011768,0.00055790,-0
 .00148102,0.00129157,0.00102606,-0.02072797,-0.00183585,0.00402755,0.0
 6211226,-0.00619074,-0.06318740,-0.00264384,0.00026765,-0.00309146,-0.
 00123532,-0.00000099,0.00093385,0.00010173,-0.00015835,-0.00003466,0.0
 0001969,0.00000502,0.00001287,-0.00032409,0.00002718,0.00030409,0.0000
 4900,-0.00005354,-0.00007573,0.00003839,-0.00003413,0.00010081,0.00012
 564,0.00005293,-0.00002345,0.00078471,0.00004240,0.00069595,0.02573148
 ,-0.00029822,-0.00432142,-0.06301372,0.00544705,0.06508279,-0.00226000
 ,-0.00004108,-0.00228470,-0.00039379,-0.00052120,0.00013699,0.00059633
 ,-0.00034250,0.00042514,-0.00153459,0.00037526,0.00058622,-0.00043741,
 0.00111030,0.00021306,-0.00486554,-0.00111998,0.00056374,-0.00769717,0
 .02188124,0.01950690,0.00157809,0.00012610,0.00089884,-0.05103918,0.03
 316869,0.02681509,0.00201311,-0.01713630,-0.01657030,-0.00044255,-0.00
 082818,0.00037506,-0.00004464,-0.00014916,0.00004518,0.00056544,0.0001
 1779,-0.00014113,-0.00009735,0.00008817,-0.00000609,0.00070140,0.00009
 148,-0.00016737,-0.00007798,0.00046745,0.00037347,0.00157077,-0.000498
 32,-0.00030139,-0.00049610,-0.00006729,-0.00068617,0.00015097,-0.00030
 983,-0.00013954,0.06243612,-0.00048115,-0.00027575,0.00032190,0.000525
 49,-0.00261969,0.00142222,0.00441089,-0.01747704,-0.01626459,-0.000023
 43,-0.00249447,0.00125197,-0.00030689,0.00065988,0.00092442,-0.0012888
 1,0.00043564,0.00011792,-0.00228215,0.00466981,0.00431384,-0.00010169,
 -0.00032023,-0.00038291,0.03248422,-0.19638453,-0.13128190,0.00157686,
 0.00087265,0.00080477,-0.00002443,-0.00012254,-0.00015435,-0.00078948,
 -0.00038630,-0.00027745,-0.00014210,0.00157167,0.00024562,0.00086517,-
 0.00026341,-0.00030063,0.00011179,0.00005784,0.00000494,0.00007926,0.0
 0008838,0.00006770,0.00083926,0.00053432,-0.00004120,0.00026112,0.0000
 7206,0.00037219,0.00009517,0.00008330,0.00026396,-0.03523520,0.2100730
 5,-0.00120126,0.00056877,-0.00196634,-0.00071894,0.00177980,-0.0007661
 2,-0.00359905,0.01488634,0.00978661,0.00034556,0.00226874,-0.00068921,
 0.00046523,0.00006072,-0.00088617,0.00280802,0.00042060,-0.00005062,0.
 00361188,-0.01093299,-0.01005855,-0.00062475,-0.00003969,0.00033356,0.
 02670186,-0.13184507,-0.15677571,0.00265067,-0.01430880,-0.01234417,-0
 .00016361,-0.00054662,0.00031451,0.00062968,0.00014253,0.00011644,0.00
 002478,-0.00026715,0.00134654,-0.00048650,0.00018309,0.00015003,-0.000
 24703,0.00000040,0.00011305,0.00003159,-0.00024778,-0.00012508,-0.0005
 0510,0.00032816,0.00012368,-0.00029789,-0.00018117,0.00044366,0.000114
 47,0.00019417,0.00008290,-0.02789399,0.13783820,0.17093845,-0.00300686
 ,-0.00066275,0.01092071,-0.00100859,-0.00135743,0.00014624,-0.00212570
 ,-0.00102252,-0.00303597,0.00032098,-0.00018742,-0.00036184,0.00066756
 ,0.00036259,-0.00009814,-0.00108806,-0.00016638,0.00080724,0.00137057,
 0.00004154,-0.00009744,0.00022504,-0.00004207,-0.00001971,0.00678559,0
 .00430872,-0.02215450,-0.07004043,-0.01220207,0.07501501,0.00008205,-0
 .00000148,-0.00038439,0.00069217,-0.00013961,-0.00030249,-0.00002004,0
 .00110059,-0.00046322,-0.00011983,0.00002998,0.00011039,-0.00016485,0.
 00002073,0.00005676,-0.00083830,0.00047610,0.00016087,0.00003715,-0.00
 023319,0.00009477,0.00005146,0.00007900,0.00010630,-0.00002261,-0.0000
 6590,0.00007667,-0.00165491,-0.00015573,-0.00201369,0.07752704,-0.0085
 4470,-0.00539383,0.03194983,-0.00168207,-0.00367576,-0.00029732,-0.000
 81794,-0.00086844,0.00125210,-0.00017681,0.00012309,0.00021831,-0.0004
 7521,-0.00040163,0.00012102,0.00013004,0.00042753,0.00009586,0.0004590
 0,0.00113416,0.00001339,0.00005923,-0.00013635,-0.00015711,0.00033830,
 -0.00051550,-0.00465125,-0.01161516,-0.04820385,0.03454739,0.00009136,
 0.00045984,-0.00102894,0.00202971,-0.00121333,-0.00104627,0.00045699,0
 .00015919,0.00028210,-0.00000836,-0.00002299,-0.00007455,0.00008921,-0
 .00002766,0.00000094,0.00031101,0.00012533,-0.00017879,0.00015044,-0.0
 0024558,-0.00001720,-0.00002109,-0.00000024,-0.00004137,0.00004217,0.0
 0003543,0.00002785,-0.00091747,0.00007709,-0.00078979,0.01298039,0.054
 47353,0.00038919,0.00393161,-0.00128203,0.00116328,-0.00063732,0.00014
 479,0.00028862,-0.00050758,-0.00154795,-0.00015731,0.00036028,0.000253
 53,-0.00030539,-0.00009604,-0.00025225,0.00028939,-0.00006300,-0.00006
 502,0.00153748,-0.00031242,0.00098639,0.00028461,-0.00019502,-0.000037
 88,0.00448951,0.00133775,-0.01565474,0.07257955,0.03288789,-0.27580017
 ,0.00014144,0.00070718,-0.00007020,-0.00002577,0.00017239,0.00003274,-
 0.00049545,0.00075195,-0.00018388,-0.00014254,-0.00000139,0.00009253,0
 .00012945,0.00000755,0.00002878,0.00034824,-0.00003053,0.00050909,-0.0
 0062970,-0.00010793,0.00003926,0.00005503,0.00007007,0.00009385,-0.000
 09674,-0.00006340,0.00009350,-0.00178442,0.00053674,-0.00156086,-0.080
 94059,-0.03911392,0.30104142,0.01256522,-0.00779823,-0.00346000,-0.000
 76441,-0.00189867,0.00040247,-0.00171344,-0.00065815,-0.00051909,-0.00
 010902,0.00052509,-0.00045915,-0.00003381,-0.00014421,0.00014742,-0.00
 000607,-0.00023260,-0.00059624,-0.00127818,0.00085342,-0.00263350,-0.0
 0091547,0.00003944,0.00028273,-0.01486588,0.01319542,0.00567303,-0.182
 54340,0.12382838,0.03657348,-0.00021153,0.00095524,-0.00016342,-0.0004
 3208,0.00035507,0.00098666,0.00002372,0.00013301,-0.00005953,-0.000202
 15,0.00007647,0.00002508,-0.00002468,0.00003613,0.00002224,0.00010046,
 0.00000610,-0.00003203,-0.00016494,-0.00010818,0.00007078,0.00000697,-
 0.00002906,-0.00004623,-0.00016264,0.00025779,-0.00028197,0.00142900,-
 0.00041818,0.00036808,-0.00766942,0.00712096,0.00288214,0.19697173,0.0
 2255641,-0.02215172,-0.00393839,-0.00278144,-0.00317666,-0.00060866,0.
 00059884,-0.00117302,-0.00088209,0.00000271,0.00043035,0.00030093,-0.0
 0014326,0.00002220,0.00000815,0.00003501,-0.00008130,-0.00005626,-0.00
 090856,0.00029934,-0.00055986,-0.00019691,-0.00009904,-0.00001104,-0.0
 0539998,0.00347811,0.00058633,0.12769364,-0.15965930,-0.03515363,-0.00
 084072,0.00025876,0.00000766,-0.00106842,0.00047402,0.00220374,0.00005
 115,0.00002330,0.00003583,0.00001537,0.00003434,-0.00000807,-0.0000242
 4,0.00002655,0.00001092,-0.00002094,0.00001151,-0.00004063,0.00000367,
 0.00000074,-0.00000299,0.00000375,-0.00000404,-0.00000353,-0.00005779,
 0.00010634,-0.00013188,-0.00025998,0.00114825,0.00048754,-0.00316307,0
 .00368999,0.00036514,-0.13609524,0.17634129,-0.00343284,0.00510497,0.0
 0038198,-0.00005530,0.00023649,-0.00015809,-0.00142571,0.00024940,-0.0
 0050670,-0.00089801,0.00080848,-0.00021810,0.00000375,0.00014684,-0.00
 041149,0.00047310,-0.00054157,-0.00023238,-0.00083864,0.00020394,-0.00
 142303,-0.00032979,0.00011076,0.00019850,-0.01456077,0.01306767,0.0028
 5058,0.03794255,-0.03611449,-0.05630416,0.00003275,-0.00019309,0.00011
 748,0.00032076,0.00002819,-0.00051192,-0.00000908,0.00015815,-0.000049
 25,-0.00022378,0.00010927,0.00009563,0.00005466,0.00002727,0.00002101,
 -0.00009453,-0.00001042,0.00025221,-0.00008117,-0.00001022,0.00004277,
 0.00001010,0.00000515,0.00001675,-0.00011755,0.00011808,-0.00011817,0.
 00003543,0.00021664,0.00147339,0.02237701,-0.02111227,-0.00686090,-0.0
 3918294,0.03739079,0.06134388\\0.00001938,-0.00001236,-0.00002349,0.00
 003187,-0.00000072,0.00000328,-0.00002788,0.00004842,-0.00001214,0.000
 11176,-0.00000819,-0.00001875,-0.00010242,-0.00003519,0.00002113,0.000
 03532,0.00002078,0.00000104,0.00001602,-0.00000483,-0.00000724,-0.0001
 1624,0.00000164,0.00002093,-0.00000940,-0.00003876,0.00003370,0.000019
 29,0.00001381,-0.00001942,0.00000366,0.00000038,-0.00000335,-0.0000051
 9,-0.00000130,-0.00001049,0.00000821,-0.00000780,-0.00000258,-0.000028
 37,-0.00000386,0.00001438,0.00001287,0.00000181,-0.00001157,0.00002046
 ,-0.00001347,0.00000792,-0.00001360,0.00000384,-0.00000472,0.00001155,
 0.00001944,0.00002019,-0.00000444,0.00000661,0.00001519,0.00000300,0.0
 0000767,-0.00000772,0.00000849,-0.00000505,-0.00001021,0.00000566,0.00
 000713,-0.00000608\\\@


 Not by the face shall a man be known, but by the mask.
                               -- Karen Blixen
 Job cpu time:       0 days 17 hours  1 minutes 17.6 seconds.
 File lengths (MBytes):  RWF=    551 Int=      0 D2E=      0 Chk=     23 Scr=      1
 Normal termination of Gaussian 09 at Sat May 20 03:34:05 2017.
