 Entering Gaussian System, Link 0=g09
 Input=s2_4_4_diene_1_m.inp
 Output=s2_4_4_diene_1_m.log
 Initial command:
 /usr/common/software/g09/d1/g09/l1.exe "/global/cscratch1/sd/kehangha/Gau-35204.inp" -scrdir="/global/cscratch1/sd/kehangha/"
 Entering Link 1 = /usr/common/software/g09/d1/g09/l1.exe PID=     35205.
  
 Copyright (c) 1988,1990,1992,1993,1995,1998,2003,2009,2013,
            Gaussian, Inc.  All Rights Reserved.
  
 This is part of the Gaussian(R) 09 program.  It is based on
 the Gaussian(R) 03 system (copyright 2003, Gaussian, Inc.),
 the Gaussian(R) 98 system (copyright 1998, Gaussian, Inc.),
 the Gaussian(R) 94 system (copyright 1995, Gaussian, Inc.),
 the Gaussian 92(TM) system (copyright 1992, Gaussian, Inc.),
 the Gaussian 90(TM) system (copyright 1990, Gaussian, Inc.),
 the Gaussian 88(TM) system (copyright 1988, Gaussian, Inc.),
 the Gaussian 86(TM) system (copyright 1986, Carnegie Mellon
 University), and the Gaussian 82(TM) system (copyright 1983,
 Carnegie Mellon University). Gaussian is a federally registered
 trademark of Gaussian, Inc.
  
 This software contains proprietary and confidential information,
 including trade secrets, belonging to Gaussian, Inc.
  
 This software is provided under written license and may be
 used, copied, transmitted, or stored only in accord with that
 written license.
  
 The following legend is applicable only to US Government
 contracts under FAR:
  
                    RESTRICTED RIGHTS LEGEND
  
 Use, reproduction and disclosure by the US Government is
 subject to restrictions as set forth in subparagraphs (a)
 and (c) of the Commercial Computer Software - Restricted
 Rights clause in FAR 52.227-19.
  
 Gaussian, Inc.
 340 Quinnipiac St., Bldg. 40, Wallingford CT 06492
  
  
 ---------------------------------------------------------------
 Warning -- This program may not be used in any manner that
 competes with the business of Gaussian, Inc. or will provide
 assistance to any competitor of Gaussian, Inc.  The licensee
 of this program is prohibited from giving any competitor of
 Gaussian, Inc. access to this program.  By using this program,
 the user acknowledges that Gaussian, Inc. is engaged in the
 business of creating and licensing software in the field of
 computational chemistry and represents and warrants to the
 licensee that it is not a competitor of Gaussian, Inc. and that
 it will not use this program in any manner prohibited above.
 ---------------------------------------------------------------
  

 Cite this work as:
 Gaussian 09, Revision D.01,
 M. J. Frisch, G. W. Trucks, H. B. Schlegel, G. E. Scuseria, 
 M. A. Robb, J. R. Cheeseman, G. Scalmani, V. Barone, B. Mennucci, 
 G. A. Petersson, H. Nakatsuji, M. Caricato, X. Li, H. P. Hratchian, 
 A. F. Izmaylov, J. Bloino, G. Zheng, J. L. Sonnenberg, M. Hada, 
 M. Ehara, K. Toyota, R. Fukuda, J. Hasegawa, M. Ishida, T. Nakajima, 
 Y. Honda, O. Kitao, H. Nakai, T. Vreven, J. A. Montgomery, Jr., 
 J. E. Peralta, F. Ogliaro, M. Bearpark, J. J. Heyd, E. Brothers, 
 K. N. Kudin, V. N. Staroverov, T. Keith, R. Kobayashi, J. Normand, 
 K. Raghavachari, A. Rendell, J. C. Burant, S. S. Iyengar, J. Tomasi, 
 M. Cossi, N. Rega, J. M. Millam, M. Klene, J. E. Knox, J. B. Cross, 
 V. Bakken, C. Adamo, J. Jaramillo, R. Gomperts, R. E. Stratmann, 
 O. Yazyev, A. J. Austin, R. Cammi, C. Pomelli, J. W. Ochterski, 
 R. L. Martin, K. Morokuma, V. G. Zakrzewski, G. A. Voth, 
 P. Salvador, J. J. Dannenberg, S. Dapprich, A. D. Daniels, 
 O. Farkas, J. B. Foresman, J. V. Ortiz, J. Cioslowski, 
 and D. J. Fox, Gaussian, Inc., Wallingford CT, 2013.
 
 ******************************************
 Gaussian 09:  ES64L-G09RevD.01 24-Apr-2013
                23-Jan-2017 
 ******************************************
 %chk=s2_4_4_diene_1_m.chk
 %mem=1500mb
 %nproc=32
 Will use up to   32 processors via shared memory.
 -------------------------
 # opt freq um062x/cc-pvtz
 -------------------------
 1/14=-1,18=20,19=15,26=3,38=1/1,3;
 2/9=110,12=2,17=6,18=5,40=1/2;
 3/5=16,6=1,11=2,16=1,25=1,30=1,71=1,74=-55,116=2/1,2,3;
 4//1;
 5/5=2,38=5/2;
 6/7=2,8=2,9=2,10=2,28=1/1;
 7//1,2,3,16;
 1/14=-1,18=20,19=15,26=3/3(2);
 2/9=110/2;
 99//99;
 2/9=110/2;
 3/5=16,6=1,11=2,16=1,25=1,30=1,71=1,74=-55,116=2/1,2,3;
 4/5=5,16=3,69=1/1;
 5/5=2,38=5/2;
 7//1,2,3,16;
 1/14=-1,18=20,19=15,26=3/3(-5);
 2/9=110/2;
 6/7=2,8=2,9=2,10=2,19=2,28=1/1;
 99/9=1/99;
 ----------------
 s2_4_4_diene_1_m
 ----------------
 Symbolic Z-matrix:
 Charge =  0 Multiplicity = 1
 C                     1.0786    0.6951    0.806 
 C                     1.4483    0.2014   -0.3894 
 C                     0.6608   -1.0421   -0.141 
 C                    -0.6614   -0.5869   -0.7807 
 C                    -1.0613   -0.0452    0.5056 
 C                     0.2774   -0.532     1.0863 
 H                     1.2822    1.6107    1.3457 
 H                     2.07      0.5592   -1.1997 
 H                    -1.2782   -1.4677   -1.0663 
 H                    -0.6303    0.1674   -1.6067 
 H                    -1.2782    1.0526    0.4882 
 H                    -1.9079   -0.6124    0.952 
 

 GradGradGradGradGradGradGradGradGradGradGradGradGradGradGradGradGradGrad
 Berny optimization.
 Initialization pass.
                           ----------------------------
                           !    Initial Parameters    !
                           ! (Angstroms and Degrees)  !
 --------------------------                            --------------------------
 ! Name  Definition              Value          Derivative Info.                !
 --------------------------------------------------------------------------------
 ! R1    R(1,2)                  1.3451         estimate D2E/DX2                !
 ! R2    R(1,6)                  1.4921         estimate D2E/DX2                !
 ! R3    R(1,7)                  1.0822         estimate D2E/DX2                !
 ! R4    R(2,3)                  1.4927         estimate D2E/DX2                !
 ! R5    R(2,8)                  1.0822         estimate D2E/DX2                !
 ! R6    R(3,4)                  1.5377         estimate D2E/DX2                !
 ! R7    R(3,6)                  1.3833         estimate D2E/DX2                !
 ! R8    R(4,5)                  1.4519         estimate D2E/DX2                !
 ! R9    R(4,9)                  1.1126         estimate D2E/DX2                !
 ! R10   R(4,10)                 1.119          estimate D2E/DX2                !
 ! R11   R(5,6)                  1.5383         estimate D2E/DX2                !
 ! R12   R(5,11)                 1.1192         estimate D2E/DX2                !
 ! R13   R(5,12)                 1.1125         estimate D2E/DX2                !
 ! A1    A(2,1,6)               90.7267         estimate D2E/DX2                !
 ! A2    A(2,1,7)              134.5908         estimate D2E/DX2                !
 ! A3    A(6,1,7)              134.6824         estimate D2E/DX2                !
 ! A4    A(1,2,3)               90.7374         estimate D2E/DX2                !
 ! A5    A(1,2,8)              134.5843         estimate D2E/DX2                !
 ! A6    A(3,2,8)              134.6774         estimate D2E/DX2                !
 ! A7    A(2,3,4)               97.9202         estimate D2E/DX2                !
 ! A8    A(2,3,6)               89.2363         estimate D2E/DX2                !
 ! A9    A(4,3,6)               91.2385         estimate D2E/DX2                !
 ! A10   A(3,4,5)               88.7805         estimate D2E/DX2                !
 ! A11   A(3,4,9)              110.4335         estimate D2E/DX2                !
 ! A12   A(3,4,10)             118.8625         estimate D2E/DX2                !
 ! A13   A(5,4,9)              111.7222         estimate D2E/DX2                !
 ! A14   A(5,4,10)             114.2125         estimate D2E/DX2                !
 ! A15   A(9,4,10)             111.0739         estimate D2E/DX2                !
 ! A16   A(4,5,6)               88.6635         estimate D2E/DX2                !
 ! A17   A(4,5,11)             113.9282         estimate D2E/DX2                !
 ! A18   A(4,5,12)             112.0163         estimate D2E/DX2                !
 ! A19   A(6,5,11)             119.0091         estimate D2E/DX2                !
 ! A20   A(6,5,12)             110.4524         estimate D2E/DX2                !
 ! A21   A(11,5,12)            111.0301         estimate D2E/DX2                !
 ! A22   A(1,6,3)               89.2991         estimate D2E/DX2                !
 ! A23   A(1,6,5)               97.8239         estimate D2E/DX2                !
 ! A24   A(3,6,5)               91.3163         estimate D2E/DX2                !
 ! D1    D(6,1,2,3)             -0.1704         estimate D2E/DX2                !
 ! D2    D(6,1,2,8)           -179.8419         estimate D2E/DX2                !
 ! D3    D(7,1,2,3)            179.7143         estimate D2E/DX2                !
 ! D4    D(7,1,2,8)              0.0428         estimate D2E/DX2                !
 ! D5    D(2,1,6,3)              0.1839         estimate D2E/DX2                !
 ! D6    D(2,1,6,5)            -91.0485         estimate D2E/DX2                !
 ! D7    D(7,1,6,3)           -179.7007         estimate D2E/DX2                !
 ! D8    D(7,1,6,5)             89.0669         estimate D2E/DX2                !
 ! D9    D(1,2,3,4)             91.3281         estimate D2E/DX2                !
 ! D10   D(1,2,3,6)              0.1838         estimate D2E/DX2                !
 ! D11   D(8,2,3,4)            -89.0009         estimate D2E/DX2                !
 ! D12   D(8,2,3,6)            179.8548         estimate D2E/DX2                !
 ! D13   D(2,3,4,5)            -89.124          estimate D2E/DX2                !
 ! D14   D(2,3,4,9)            158.1008         estimate D2E/DX2                !
 ! D15   D(2,3,4,10)            28.0482         estimate D2E/DX2                !
 ! D16   D(6,3,4,5)              0.2771         estimate D2E/DX2                !
 ! D17   D(6,3,4,9)           -112.4981         estimate D2E/DX2                !
 ! D18   D(6,3,4,10)           117.4494         estimate D2E/DX2                !
 ! D19   D(2,3,6,1)             -0.1657         estimate D2E/DX2                !
 ! D20   D(2,3,6,5)             97.6446         estimate D2E/DX2                !
 ! D21   D(4,3,6,1)            -98.0719         estimate D2E/DX2                !
 ! D22   D(4,3,6,5)             -0.2616         estimate D2E/DX2                !
 ! D23   D(3,4,5,6)             -0.2492         estimate D2E/DX2                !
 ! D24   D(3,4,5,11)           121.1058         estimate D2E/DX2                !
 ! D25   D(3,4,5,12)          -111.8159         estimate D2E/DX2                !
 ! D26   D(9,4,5,6)            111.3068         estimate D2E/DX2                !
 ! D27   D(9,4,5,11)          -127.3381         estimate D2E/DX2                !
 ! D28   D(9,4,5,12)            -0.2598         estimate D2E/DX2                !
 ! D29   D(10,4,5,6)          -121.5692         estimate D2E/DX2                !
 ! D30   D(10,4,5,11)           -0.2141         estimate D2E/DX2                !
 ! D31   D(10,4,5,12)          126.8642         estimate D2E/DX2                !
 ! D32   D(4,5,6,1)             89.7503         estimate D2E/DX2                !
 ! D33   D(4,5,6,3)              0.2771         estimate D2E/DX2                !
 ! D34   D(11,5,6,1)           -27.0554         estimate D2E/DX2                !
 ! D35   D(11,5,6,3)          -116.5286         estimate D2E/DX2                !
 ! D36   D(12,5,6,1)          -157.202          estimate D2E/DX2                !
 ! D37   D(12,5,6,3)           113.3248         estimate D2E/DX2                !
 --------------------------------------------------------------------------------
 Trust Radius=3.00D-01 FncErr=1.00D-07 GrdErr=1.00D-06
 Number of steps in this run=     84 maximum allowed number of steps=    100.
 GradGradGradGradGradGradGradGradGradGradGradGradGradGradGradGradGradGrad

                          Input orientation:                          
 ---------------------------------------------------------------------
 Center     Atomic      Atomic             Coordinates (Angstroms)
 Number     Number       Type             X           Y           Z
 ---------------------------------------------------------------------
      1          6           0        1.078600    0.695100    0.806000
      2          6           0        1.448300    0.201400   -0.389400
      3          6           0        0.660800   -1.042100   -0.141000
      4          6           0       -0.661400   -0.586900   -0.780700
      5          6           0       -1.061300   -0.045200    0.505600
      6          6           0        0.277400   -0.532000    1.086300
      7          1           0        1.282200    1.610700    1.345700
      8          1           0        2.070000    0.559200   -1.199700
      9          1           0       -1.278200   -1.467700   -1.066300
     10          1           0       -0.630300    0.167400   -1.606700
     11          1           0       -1.278200    1.052600    0.488200
     12          1           0       -1.907900   -0.612400    0.952000
 ---------------------------------------------------------------------
                    Distance matrix (angstroms):
                    1          2          3          4          5
     1  C    0.000000
     2  C    1.345139   0.000000
     3  C    2.022184   1.492699   0.000000
     4  C    2.681183   2.285906   1.537737   0.000000
     5  C    2.284175   2.675804   2.092255   1.451870   0.000000
     6  C    1.492067   2.021527   1.383280   2.090466   1.538280
     7  H    1.082152   2.241492   3.103830   3.623342   2.989944
     8  H    2.241467   1.082182   2.381355   2.991597   3.616405
     9  H    3.706443   3.267704   2.190214   1.112573   2.131061
    10  H    3.003319   2.409057   2.297413   1.119023   2.166280
    11  H    2.404851   2.988064   2.922906   2.162986   1.119157
    12  H    3.263442   3.704822   2.824449   2.134634   1.112529
                    6          7          8          9         10
     6  C    0.000000
     7  H    2.380772   0.000000
     8  H    3.103213   2.864497   0.000000
     9  H    2.815868   4.674392   3.916192   0.000000
    10  H    2.926658   3.802294   2.758764   1.839934   0.000000
    11  H    2.299690   2.757250   3.781917   2.961145   2.364732
    12  H    2.190899   3.908185   4.671846   2.280701   2.964337
                   11         12
    11  H    0.000000
    12  H    1.839526   0.000000
 Stoichiometry    C6H6
 Framework group  C1[X(C6H6)]
 Deg. of freedom    30
 Full point group                 C1      NOp   1
 Largest Abelian subgroup         C1      NOp   1
 Largest concise Abelian subgroup C1      NOp   1
                         Standard orientation:                         
 ---------------------------------------------------------------------
 Center     Atomic      Atomic             Coordinates (Angstroms)
 Number     Number       Type             X           Y           Z
 ---------------------------------------------------------------------
      1          6           0        1.204192    0.670825   -0.202220
      2          6           0        1.199533   -0.674296   -0.207402
      3          6           0        0.063820   -0.693303    0.761075
      4          6           0       -1.085231   -0.723412   -0.260400
      5          6           0       -1.078411    0.728437   -0.264349
      6          6           0        0.066216    0.689974    0.762615
      7          1           0        1.795664    1.430402   -0.696443
      8          1           0        1.786195   -1.434059   -0.707107
      9          1           0       -2.009686   -1.129576    0.206753
     10          1           0       -0.904522   -1.185932   -1.263211
     11          1           0       -0.889226    1.178737   -1.271301
     12          1           0       -1.999138    1.151072    0.195392
 ---------------------------------------------------------------------
 Rotational constants (GHZ):      7.7410681      5.0678493      4.0903787
 Standard basis: CC-pVTZ (5D, 7F)
 There are   300 symmetry adapted cartesian basis functions of A   symmetry.
 There are   264 symmetry adapted basis functions of A   symmetry.
   264 basis functions,   414 primitive gaussians,   300 cartesian basis functions
    21 alpha electrons       21 beta electrons
       nuclear repulsion energy       215.1377538912 Hartrees.
 NAtoms=   12 NActive=   12 NUniq=   12 SFac= 1.00D+00 NAtFMM=   60 NAOKFM=F Big=F
 Integral buffers will be    131072 words long.
 Raffenetti 2 integral format.
 Two-electron integral symmetry is turned on.
 One-electron integrals computed using PRISM.
 PrsmSu:  requested number of processors reduced to:  25 ShMem   1 Linda.
 NBasis=   264 RedAO= T EigKep=  1.13D-04  NBF=   264
 NBsUse=   264 1.00D-06 EigRej= -1.00D+00 NBFU=   264
 ExpMin= 1.03D-01 ExpMax= 8.24D+03 ExpMxC= 2.81D+02 IAcc=1 IRadAn=         1 AccDes= 0.00D+00
 Harris functional with IExCor= 1009 and IRadAn=       1 diagonalized for initial guess.
 HarFok:  IExCor= 1009 AccDes= 0.00D+00 IRadAn=         1 IDoV= 1 UseB2=F ITyADJ=14
 ICtDFT=  3500011 ScaDFX=  1.000000  1.000000  1.000000  1.000000
 FoFCou: FMM=F IPFlag=           0 FMFlag=      100000 FMFlg1=           0
         NFxFlg=           0 DoJE=T BraDBF=F KetDBF=T FulRan=T
         wScrn=  0.000000 ICntrl=     500 IOpCl=  0 I1Cent=   200000004 NGrid=           0
         NMat0=    1 NMatS0=      1 NMatT0=    0 NMatD0=    1 NMtDS0=    0 NMtDT0=    0
 Petite list used in FoFCou.
 Initial guess <Sx>= 0.0000 <Sy>= 0.0000 <Sz>= 0.0000 <S**2>= 0.0000 S= 0.0000
 Requested convergence on RMS density matrix=1.00D-08 within 128 cycles.
 Requested convergence on MAX density matrix=1.00D-06.
 Requested convergence on             energy=1.00D-06.
 No special actions if energy rises.
 Integral accuracy reduced to 1.0D-05 until final iterations.
 Initial convergence to 1.0D-05 achieved.  Increase integral accuracy.
 SCF Done:  E(UM062X) =  -231.914462917     A.U. after   16 cycles
            NFock= 16  Conv=0.36D-08     -V/T= 2.0049
 <Sx>= 0.0000 <Sy>= 0.0000 <Sz>= 0.0000 <S**2>= 0.0000 S= 0.0000
 <L.S>= 0.000000000000E+00
 Annihilation of the first spin contaminant:
 S**2 before annihilation     0.0000,   after     0.0000

 **********************************************************************

            Population analysis using the SCF density.

 **********************************************************************

 Orbital symmetries:
 Alpha Orbitals:
       Occupied  (A) (A) (A) (A) (A) (A) (A) (A) (A) (A) (A) (A)
                 (A) (A) (A) (A) (A) (A) (A) (A) (A)
       Virtual   (A) (A) (A) (A) (A) (A) (A) (A) (A) (A) (A) (A)
                 (A) (A) (A) (A) (A) (A) (A) (A) (A) (A) (A) (A)
                 (A) (A) (A) (A) (A) (A) (A) (A) (A) (A) (A) (A)
                 (A) (A) (A) (A) (A) (A) (A) (A) (A) (A) (A) (A)
                 (A) (A) (A) (A) (A) (A) (A) (A) (A) (A) (A) (A)
                 (A) (A) (A) (A) (A) (A) (A) (A) (A) (A) (A) (A)
                 (A) (A) (A) (A) (A) (A) (A) (A) (A) (A) (A) (A)
                 (A) (A) (A) (A) (A) (A) (A) (A) (A) (A) (A) (A)
                 (A) (A) (A) (A) (A) (A) (A) (A) (A) (A) (A) (A)
                 (A) (A) (A) (A) (A) (A) (A) (A) (A) (A) (A) (A)
                 (A) (A) (A) (A) (A) (A) (A) (A) (A) (A) (A) (A)
                 (A) (A) (A) (A) (A) (A) (A) (A) (A) (A) (A) (A)
                 (A) (A) (A) (A) (A) (A) (A) (A) (A) (A) (A) (A)
                 (A) (A) (A) (A) (A) (A) (A) (A) (A) (A) (A) (A)
                 (A) (A) (A) (A) (A) (A) (A) (A) (A) (A) (A) (A)
                 (A) (A) (A) (A) (A) (A) (A) (A) (A) (A) (A) (A)
                 (A) (A) (A) (A) (A) (A) (A) (A) (A) (A) (A) (A)
                 (A) (A) (A) (A) (A) (A) (A) (A) (A) (A) (A) (A)
                 (A) (A) (A) (A) (A) (A) (A) (A) (A) (A) (A) (A)
                 (A) (A) (A) (A) (A) (A) (A) (A) (A) (A) (A) (A)
                 (A) (A) (A)
 Beta  Orbitals:
       Occupied  (A) (A) (A) (A) (A) (A) (A) (A) (A) (A) (A) (A)
                 (A) (A) (A) (A) (A) (A) (A) (A) (A)
       Virtual   (A) (A) (A) (A) (A) (A) (A) (A) (A) (A) (A) (A)
                 (A) (A) (A) (A) (A) (A) (A) (A) (A) (A) (A) (A)
                 (A) (A) (A) (A) (A) (A) (A) (A) (A) (A) (A) (A)
                 (A) (A) (A) (A) (A) (A) (A) (A) (A) (A) (A) (A)
                 (A) (A) (A) (A) (A) (A) (A) (A) (A) (A) (A) (A)
                 (A) (A) (A) (A) (A) (A) (A) (A) (A) (A) (A) (A)
                 (A) (A) (A) (A) (A) (A) (A) (A) (A) (A) (A) (A)
                 (A) (A) (A) (A) (A) (A) (A) (A) (A) (A) (A) (A)
                 (A) (A) (A) (A) (A) (A) (A) (A) (A) (A) (A) (A)
                 (A) (A) (A) (A) (A) (A) (A) (A) (A) (A) (A) (A)
                 (A) (A) (A) (A) (A) (A) (A) (A) (A) (A) (A) (A)
                 (A) (A) (A) (A) (A) (A) (A) (A) (A) (A) (A) (A)
                 (A) (A) (A) (A) (A) (A) (A) (A) (A) (A) (A) (A)
                 (A) (A) (A) (A) (A) (A) (A) (A) (A) (A) (A) (A)
                 (A) (A) (A) (A) (A) (A) (A) (A) (A) (A) (A) (A)
                 (A) (A) (A) (A) (A) (A) (A) (A) (A) (A) (A) (A)
                 (A) (A) (A) (A) (A) (A) (A) (A) (A) (A) (A) (A)
                 (A) (A) (A) (A) (A) (A) (A) (A) (A) (A) (A) (A)
                 (A) (A) (A) (A) (A) (A) (A) (A) (A) (A) (A) (A)
                 (A) (A) (A) (A) (A) (A) (A) (A) (A) (A) (A) (A)
                 (A) (A) (A)
 The electronic state is 1-A.
 Alpha  occ. eigenvalues --  -10.56518 -10.56428 -10.55499 -10.55391 -10.54768
 Alpha  occ. eigenvalues --  -10.54714  -1.05864  -0.87238  -0.75478  -0.72738
 Alpha  occ. eigenvalues --   -0.64461  -0.57620  -0.54712  -0.51546  -0.51205
 Alpha  occ. eigenvalues --   -0.46100  -0.42726  -0.41766  -0.32406  -0.32146
 Alpha  occ. eigenvalues --   -0.26015
 Alpha virt. eigenvalues --   -0.08334   0.06038   0.07730   0.09487   0.10334
 Alpha virt. eigenvalues --    0.11242   0.14003   0.14494   0.17092   0.17434
 Alpha virt. eigenvalues --    0.18633   0.25628   0.25683   0.27143   0.28582
 Alpha virt. eigenvalues --    0.31010   0.32182   0.33365   0.33776   0.34926
 Alpha virt. eigenvalues --    0.37215   0.38521   0.38822   0.43163   0.43420
 Alpha virt. eigenvalues --    0.44688   0.45601   0.46801   0.48315   0.48801
 Alpha virt. eigenvalues --    0.50035   0.50569   0.50800   0.54598   0.55436
 Alpha virt. eigenvalues --    0.56550   0.57615   0.59320   0.62283   0.63994
 Alpha virt. eigenvalues --    0.65759   0.71123   0.79741   0.83318   0.83780
 Alpha virt. eigenvalues --    0.86199   0.86722   0.90582   0.92516   0.94316
 Alpha virt. eigenvalues --    0.95475   0.98100   0.98925   1.00604   1.04613
 Alpha virt. eigenvalues --    1.05417   1.05459   1.06661   1.07406   1.08572
 Alpha virt. eigenvalues --    1.09951   1.10656   1.14640   1.15172   1.15425
 Alpha virt. eigenvalues --    1.19266   1.20534   1.23047   1.25244   1.26909
 Alpha virt. eigenvalues --    1.27670   1.27903   1.30879   1.30994   1.32464
 Alpha virt. eigenvalues --    1.35076   1.35854   1.38149   1.38377   1.40823
 Alpha virt. eigenvalues --    1.43993   1.45094   1.50352   1.50603   1.54326
 Alpha virt. eigenvalues --    1.54512   1.56391   1.61059   1.63468   1.66477
 Alpha virt. eigenvalues --    1.71327   1.76095   1.86094   2.02478   2.05058
 Alpha virt. eigenvalues --    2.08727   2.13736   2.21517   2.28792   2.34651
 Alpha virt. eigenvalues --    2.39929   2.40611   2.42378   2.43887   2.48923
 Alpha virt. eigenvalues --    2.50739   2.51487   2.53538   2.54259   2.57792
 Alpha virt. eigenvalues --    2.59060   2.64181   2.64739   2.66463   2.68430
 Alpha virt. eigenvalues --    2.68646   2.70331   2.71853   2.75614   2.75712
 Alpha virt. eigenvalues --    2.77772   2.78496   2.81577   2.82192   2.86560
 Alpha virt. eigenvalues --    2.90633   2.91511   2.93114   2.93737   2.96014
 Alpha virt. eigenvalues --    2.99720   2.99869   3.03021   3.04315   3.04406
 Alpha virt. eigenvalues --    3.05919   3.06259   3.07897   3.08345   3.10602
 Alpha virt. eigenvalues --    3.11479   3.15495   3.18119   3.20294   3.21432
 Alpha virt. eigenvalues --    3.24340   3.25123   3.26334   3.27374   3.31500
 Alpha virt. eigenvalues --    3.32652   3.37033   3.39292   3.41737   3.43632
 Alpha virt. eigenvalues --    3.45109   3.47137   3.50243   3.52106   3.52931
 Alpha virt. eigenvalues --    3.53222   3.54242   3.56305   3.60451   3.60911
 Alpha virt. eigenvalues --    3.64618   3.66015   3.68824   3.69381   3.70960
 Alpha virt. eigenvalues --    3.73520   3.75937   3.77428   3.79957   3.81996
 Alpha virt. eigenvalues --    3.83194   3.85554   3.86331   3.87463   3.92064
 Alpha virt. eigenvalues --    3.92711   3.94621   3.99577   4.00954   4.03554
 Alpha virt. eigenvalues --    4.04246   4.05307   4.09643   4.10304   4.11197
 Alpha virt. eigenvalues --    4.12481   4.16627   4.17756   4.19537   4.20371
 Alpha virt. eigenvalues --    4.21966   4.23026   4.25762   4.29073   4.32395
 Alpha virt. eigenvalues --    4.33791   4.37439   4.40178   4.45925   4.46933
 Alpha virt. eigenvalues --    4.49414   4.54562   4.57677   4.61600   4.62988
 Alpha virt. eigenvalues --    4.63514   4.69729   4.79390   4.79512   4.81965
 Alpha virt. eigenvalues --    4.89796   4.92248   4.95795   4.99645   5.01551
 Alpha virt. eigenvalues --    5.05295   5.08336   5.09114   5.15218   5.19035
 Alpha virt. eigenvalues --    5.22193   5.33805   5.37417   5.39444   5.43042
 Alpha virt. eigenvalues --    5.45992   5.58126   5.74624   5.75266   5.87901
 Alpha virt. eigenvalues --    5.93898   6.31115   8.94606  10.59370  11.19503
 Alpha virt. eigenvalues --   12.51900  13.74754  14.00005
  Beta  occ. eigenvalues --  -10.56518 -10.56428 -10.55499 -10.55391 -10.54768
  Beta  occ. eigenvalues --  -10.54714  -1.05864  -0.87238  -0.75478  -0.72738
  Beta  occ. eigenvalues --   -0.64461  -0.57620  -0.54712  -0.51546  -0.51205
  Beta  occ. eigenvalues --   -0.46100  -0.42726  -0.41766  -0.32406  -0.32146
  Beta  occ. eigenvalues --   -0.26015
  Beta virt. eigenvalues --   -0.08334   0.06038   0.07730   0.09487   0.10334
  Beta virt. eigenvalues --    0.11242   0.14003   0.14494   0.17092   0.17434
  Beta virt. eigenvalues --    0.18633   0.25628   0.25683   0.27143   0.28582
  Beta virt. eigenvalues --    0.31010   0.32182   0.33365   0.33776   0.34926
  Beta virt. eigenvalues --    0.37215   0.38521   0.38822   0.43163   0.43420
  Beta virt. eigenvalues --    0.44688   0.45601   0.46801   0.48315   0.48801
  Beta virt. eigenvalues --    0.50035   0.50569   0.50800   0.54598   0.55436
  Beta virt. eigenvalues --    0.56550   0.57615   0.59320   0.62283   0.63994
  Beta virt. eigenvalues --    0.65759   0.71123   0.79741   0.83318   0.83780
  Beta virt. eigenvalues --    0.86199   0.86722   0.90582   0.92516   0.94316
  Beta virt. eigenvalues --    0.95475   0.98100   0.98925   1.00604   1.04613
  Beta virt. eigenvalues --    1.05417   1.05459   1.06661   1.07406   1.08572
  Beta virt. eigenvalues --    1.09951   1.10656   1.14640   1.15172   1.15425
  Beta virt. eigenvalues --    1.19266   1.20534   1.23047   1.25244   1.26909
  Beta virt. eigenvalues --    1.27670   1.27903   1.30879   1.30994   1.32464
  Beta virt. eigenvalues --    1.35076   1.35854   1.38149   1.38377   1.40823
  Beta virt. eigenvalues --    1.43993   1.45094   1.50352   1.50603   1.54326
  Beta virt. eigenvalues --    1.54512   1.56391   1.61059   1.63468   1.66477
  Beta virt. eigenvalues --    1.71327   1.76095   1.86094   2.02478   2.05058
  Beta virt. eigenvalues --    2.08727   2.13736   2.21517   2.28792   2.34651
  Beta virt. eigenvalues --    2.39929   2.40611   2.42378   2.43887   2.48923
  Beta virt. eigenvalues --    2.50739   2.51487   2.53538   2.54259   2.57792
  Beta virt. eigenvalues --    2.59060   2.64181   2.64739   2.66463   2.68430
  Beta virt. eigenvalues --    2.68646   2.70331   2.71853   2.75614   2.75712
  Beta virt. eigenvalues --    2.77772   2.78496   2.81577   2.82192   2.86560
  Beta virt. eigenvalues --    2.90633   2.91511   2.93114   2.93737   2.96014
  Beta virt. eigenvalues --    2.99720   2.99869   3.03021   3.04315   3.04406
  Beta virt. eigenvalues --    3.05919   3.06259   3.07897   3.08345   3.10602
  Beta virt. eigenvalues --    3.11479   3.15495   3.18119   3.20294   3.21432
  Beta virt. eigenvalues --    3.24340   3.25123   3.26334   3.27374   3.31500
  Beta virt. eigenvalues --    3.32652   3.37033   3.39292   3.41737   3.43632
  Beta virt. eigenvalues --    3.45109   3.47137   3.50243   3.52106   3.52931
  Beta virt. eigenvalues --    3.53222   3.54242   3.56305   3.60451   3.60911
  Beta virt. eigenvalues --    3.64618   3.66015   3.68824   3.69381   3.70960
  Beta virt. eigenvalues --    3.73520   3.75937   3.77428   3.79957   3.81996
  Beta virt. eigenvalues --    3.83194   3.85554   3.86331   3.87463   3.92064
  Beta virt. eigenvalues --    3.92711   3.94621   3.99577   4.00954   4.03554
  Beta virt. eigenvalues --    4.04246   4.05307   4.09643   4.10304   4.11197
  Beta virt. eigenvalues --    4.12481   4.16627   4.17756   4.19537   4.20371
  Beta virt. eigenvalues --    4.21966   4.23026   4.25762   4.29073   4.32395
  Beta virt. eigenvalues --    4.33791   4.37439   4.40178   4.45925   4.46933
  Beta virt. eigenvalues --    4.49414   4.54562   4.57677   4.61600   4.62988
  Beta virt. eigenvalues --    4.63514   4.69729   4.79390   4.79512   4.81965
  Beta virt. eigenvalues --    4.89796   4.92248   4.95795   4.99645   5.01551
  Beta virt. eigenvalues --    5.05295   5.08336   5.09114   5.15218   5.19035
  Beta virt. eigenvalues --    5.22193   5.33805   5.37417   5.39444   5.43042
  Beta virt. eigenvalues --    5.45992   5.58126   5.74624   5.75266   5.87901
  Beta virt. eigenvalues --    5.93898   6.31115   8.94606  10.59370  11.19503
  Beta virt. eigenvalues --   12.51900  13.74754  14.00005
          Condensed to atoms (all electrons):
               1          2          3          4          5          6
     1  C    5.216308   0.681075  -0.222856   0.028063  -0.080467   0.277971
     2  C    0.681075   5.218546   0.278133  -0.081071   0.026388  -0.223815
     3  C   -0.222856   0.278133   5.338500   0.286601  -0.134208   0.464942
     4  C    0.028063  -0.081071   0.286601   5.120822   0.309954  -0.134821
     5  C   -0.080467   0.026388  -0.134208   0.309954   5.121961   0.285625
     6  C    0.277971  -0.223815   0.464942  -0.134821   0.285625   5.339016
     7  H    0.371021  -0.063700   0.022927  -0.005127  -0.000208  -0.027739
     8  H   -0.063848   0.370818  -0.027708  -0.000311  -0.005150   0.023025
     9  H    0.001772   0.003810  -0.039182   0.390058  -0.043793   0.013051
    10  H   -0.011156  -0.002373  -0.024811   0.415064  -0.049982   0.012674
    11  H   -0.001883  -0.011501   0.012305  -0.049543   0.414966  -0.024475
    12  H    0.003717   0.001904   0.013269  -0.043744   0.389776  -0.039547
               7          8          9         10         11         12
     1  C    0.371021  -0.063848   0.001772  -0.011156  -0.001883   0.003717
     2  C   -0.063700   0.370818   0.003810  -0.002373  -0.011501   0.001904
     3  C    0.022927  -0.027708  -0.039182  -0.024811   0.012305   0.013269
     4  C   -0.005127  -0.000311   0.390058   0.415064  -0.049543  -0.043744
     5  C   -0.000208  -0.005150  -0.043793  -0.049982   0.414966   0.389776
     6  C   -0.027739   0.023025   0.013051   0.012674  -0.024475  -0.039547
     7  H    0.554776   0.001001   0.000202   0.000327   0.000195  -0.000120
     8  H    0.001001   0.554912  -0.000119   0.000186   0.000324   0.000204
     9  H    0.000202  -0.000119   0.593270  -0.025460   0.004758  -0.015414
    10  H    0.000327   0.000186  -0.025460   0.549059  -0.005885   0.004671
    11  H    0.000195   0.000324   0.004758  -0.005885   0.548410  -0.025718
    12  H   -0.000120   0.000204  -0.015414   0.004671  -0.025718   0.594337
          Atomic-Atomic Spin Densities.
               1          2          3          4          5          6
     1  C    0.000000   0.000000   0.000000   0.000000   0.000000   0.000000
     2  C    0.000000   0.000000   0.000000   0.000000   0.000000   0.000000
     3  C    0.000000   0.000000   0.000000   0.000000   0.000000   0.000000
     4  C    0.000000   0.000000   0.000000   0.000000   0.000000   0.000000
     5  C    0.000000   0.000000   0.000000   0.000000   0.000000   0.000000
     6  C    0.000000   0.000000   0.000000   0.000000   0.000000   0.000000
     7  H    0.000000   0.000000   0.000000   0.000000   0.000000   0.000000
     8  H    0.000000   0.000000   0.000000   0.000000   0.000000   0.000000
     9  H    0.000000   0.000000   0.000000   0.000000   0.000000   0.000000
    10  H    0.000000   0.000000   0.000000   0.000000   0.000000   0.000000
    11  H    0.000000   0.000000   0.000000   0.000000   0.000000   0.000000
    12  H    0.000000   0.000000   0.000000   0.000000   0.000000   0.000000
               7          8          9         10         11         12
     1  C    0.000000   0.000000   0.000000   0.000000   0.000000   0.000000
     2  C    0.000000   0.000000   0.000000   0.000000   0.000000   0.000000
     3  C    0.000000   0.000000   0.000000   0.000000   0.000000   0.000000
     4  C    0.000000   0.000000   0.000000   0.000000   0.000000   0.000000
     5  C    0.000000   0.000000   0.000000   0.000000   0.000000   0.000000
     6  C    0.000000   0.000000   0.000000   0.000000   0.000000   0.000000
     7  H    0.000000   0.000000   0.000000   0.000000   0.000000   0.000000
     8  H    0.000000   0.000000   0.000000   0.000000   0.000000   0.000000
     9  H    0.000000   0.000000   0.000000   0.000000   0.000000   0.000000
    10  H    0.000000   0.000000   0.000000   0.000000   0.000000   0.000000
    11  H    0.000000   0.000000   0.000000   0.000000   0.000000   0.000000
    12  H    0.000000   0.000000   0.000000   0.000000   0.000000   0.000000
 Mulliken charges and spin densities:
               1          2
     1  C   -0.199717   0.000000
     2  C   -0.198214   0.000000
     3  C    0.032088   0.000000
     4  C   -0.235945   0.000000
     5  C   -0.234863   0.000000
     6  C    0.034094   0.000000
     7  H    0.146445   0.000000
     8  H    0.146666   0.000000
     9  H    0.117047   0.000000
    10  H    0.137687   0.000000
    11  H    0.138046   0.000000
    12  H    0.116666   0.000000
 Sum of Mulliken charges =   0.00000   0.00000
 Mulliken charges and spin densities with hydrogens summed into heavy atoms:
               1          2
     1  C   -0.053272   0.000000
     2  C   -0.051548   0.000000
     3  C    0.032088   0.000000
     4  C    0.018788   0.000000
     5  C    0.019849   0.000000
     6  C    0.034094   0.000000
 Electronic spatial extent (au):  <R**2>=            391.7563
 Charge=              0.0000 electrons
 Dipole moment (field-independent basis, Debye):
    X=             -0.5456    Y=              0.0081    Z=             -1.7434  Tot=              1.8268
 Quadrupole moment (field-independent basis, Debye-Ang):
   XX=            -35.5066   YY=            -35.9683   ZZ=            -37.3237
   XY=              0.0081   XZ=             -1.3764   YZ=              0.0149
 Traceless Quadrupole moment (field-independent basis, Debye-Ang):
   XX=              0.7597   YY=              0.2979   ZZ=             -1.0575
   XY=              0.0081   XZ=             -1.3764   YZ=              0.0149
 Octapole moment (field-independent basis, Debye-Ang**2):
  XXX=             -2.7306  YYY=              0.0141  ZZZ=             -7.2412  XYY=              2.6886
  XXY=              0.0574  XXZ=             -2.5994  XZZ=             -1.6164  YZZ=             -0.0108
  YYZ=             -5.0452  XYZ=              0.0049
 Hexadecapole moment (field-independent basis, Debye-Ang**3):
 XXXX=           -279.3293 YYYY=           -178.8952 ZZZZ=           -111.4809 XXXY=              0.0915
 XXXZ=            -11.4586 YYYX=             -0.0262 YYYZ=              0.1115 ZZZX=              1.5918
 ZZZY=             -0.0076 XXYY=            -69.1996 XXZZ=            -63.5295 YYZZ=            -46.9744
 XXYZ=              0.0362 YYXZ=             -4.2054 ZZXY=             -0.0072
 N-N= 2.151377538912D+02 E-N=-9.675831825065D+02  KE= 2.307935505826D+02
                          Isotropic Fermi Contact Couplings
        Atom                 a.u.       MegaHertz       Gauss      10(-4) cm-1
     1  C(13)              0.00000       0.00000       0.00000       0.00000
     2  C(13)              0.00000       0.00000       0.00000       0.00000
     3  C(13)              0.00000       0.00000       0.00000       0.00000
     4  C(13)              0.00000       0.00000       0.00000       0.00000
     5  C(13)              0.00000       0.00000       0.00000       0.00000
     6  C(13)              0.00000       0.00000       0.00000       0.00000
     7  H(1)               0.00000       0.00000       0.00000       0.00000
     8  H(1)               0.00000       0.00000       0.00000       0.00000
     9  H(1)               0.00000       0.00000       0.00000       0.00000
    10  H(1)               0.00000       0.00000       0.00000       0.00000
    11  H(1)               0.00000       0.00000       0.00000       0.00000
    12  H(1)               0.00000       0.00000       0.00000       0.00000
 --------------------------------------------------------
       Center         ----  Spin Dipole Couplings  ----
                      3XX-RR        3YY-RR        3ZZ-RR
 --------------------------------------------------------
     1   Atom        0.000000      0.000000      0.000000
     2   Atom        0.000000      0.000000      0.000000
     3   Atom        0.000000      0.000000      0.000000
     4   Atom        0.000000      0.000000      0.000000
     5   Atom        0.000000      0.000000      0.000000
     6   Atom        0.000000      0.000000      0.000000
     7   Atom        0.000000      0.000000      0.000000
     8   Atom        0.000000      0.000000      0.000000
     9   Atom        0.000000      0.000000      0.000000
    10   Atom        0.000000      0.000000      0.000000
    11   Atom        0.000000      0.000000      0.000000
    12   Atom        0.000000      0.000000      0.000000
 --------------------------------------------------------
                        XY            XZ            YZ
 --------------------------------------------------------
     1   Atom        0.000000      0.000000      0.000000
     2   Atom        0.000000      0.000000      0.000000
     3   Atom        0.000000      0.000000      0.000000
     4   Atom        0.000000      0.000000      0.000000
     5   Atom        0.000000      0.000000      0.000000
     6   Atom        0.000000      0.000000      0.000000
     7   Atom        0.000000      0.000000      0.000000
     8   Atom        0.000000      0.000000      0.000000
     9   Atom        0.000000      0.000000      0.000000
    10   Atom        0.000000      0.000000      0.000000
    11   Atom        0.000000      0.000000      0.000000
    12   Atom        0.000000      0.000000      0.000000
 --------------------------------------------------------


 ---------------------------------------------------------------------------------
              Anisotropic Spin Dipole Couplings in Principal Axis System
 ---------------------------------------------------------------------------------

       Atom             a.u.   MegaHertz   Gauss  10(-4) cm-1        Axes

              Baa     0.0000     0.000     0.000     0.000  1.0000  0.0000  0.0000
     1 C(13)  Bbb     0.0000     0.000     0.000     0.000  0.0000  1.0000  0.0000
              Bcc     0.0000     0.000     0.000     0.000  0.0000  0.0000  1.0000
 
              Baa     0.0000     0.000     0.000     0.000  1.0000  0.0000  0.0000
     2 C(13)  Bbb     0.0000     0.000     0.000     0.000  0.0000  1.0000  0.0000
              Bcc     0.0000     0.000     0.000     0.000  0.0000  0.0000  1.0000
 
              Baa     0.0000     0.000     0.000     0.000  1.0000  0.0000  0.0000
     3 C(13)  Bbb     0.0000     0.000     0.000     0.000  0.0000  1.0000  0.0000
              Bcc     0.0000     0.000     0.000     0.000  0.0000  0.0000  1.0000
 
              Baa     0.0000     0.000     0.000     0.000  1.0000  0.0000  0.0000
     4 C(13)  Bbb     0.0000     0.000     0.000     0.000  0.0000  1.0000  0.0000
              Bcc     0.0000     0.000     0.000     0.000  0.0000  0.0000  1.0000
 
              Baa     0.0000     0.000     0.000     0.000  1.0000  0.0000  0.0000
     5 C(13)  Bbb     0.0000     0.000     0.000     0.000  0.0000  1.0000  0.0000
              Bcc     0.0000     0.000     0.000     0.000  0.0000  0.0000  1.0000
 
              Baa     0.0000     0.000     0.000     0.000  1.0000  0.0000  0.0000
     6 C(13)  Bbb     0.0000     0.000     0.000     0.000  0.0000  1.0000  0.0000
              Bcc     0.0000     0.000     0.000     0.000  0.0000  0.0000  1.0000
 
              Baa     0.0000     0.000     0.000     0.000  1.0000  0.0000  0.0000
     7 H(1)   Bbb     0.0000     0.000     0.000     0.000  0.0000  1.0000  0.0000
              Bcc     0.0000     0.000     0.000     0.000  0.0000  0.0000  1.0000
 
              Baa     0.0000     0.000     0.000     0.000  1.0000  0.0000  0.0000
     8 H(1)   Bbb     0.0000     0.000     0.000     0.000  0.0000  1.0000  0.0000
              Bcc     0.0000     0.000     0.000     0.000  0.0000  0.0000  1.0000
 
              Baa     0.0000     0.000     0.000     0.000  1.0000  0.0000  0.0000
     9 H(1)   Bbb     0.0000     0.000     0.000     0.000  0.0000  1.0000  0.0000
              Bcc     0.0000     0.000     0.000     0.000  0.0000  0.0000  1.0000
 
              Baa     0.0000     0.000     0.000     0.000  1.0000  0.0000  0.0000
    10 H(1)   Bbb     0.0000     0.000     0.000     0.000  0.0000  1.0000  0.0000
              Bcc     0.0000     0.000     0.000     0.000  0.0000  0.0000  1.0000
 
              Baa     0.0000     0.000     0.000     0.000  1.0000  0.0000  0.0000
    11 H(1)   Bbb     0.0000     0.000     0.000     0.000  0.0000  1.0000  0.0000
              Bcc     0.0000     0.000     0.000     0.000  0.0000  0.0000  1.0000
 
              Baa     0.0000     0.000     0.000     0.000  1.0000  0.0000  0.0000
    12 H(1)   Bbb     0.0000     0.000     0.000     0.000  0.0000  1.0000  0.0000
              Bcc     0.0000     0.000     0.000     0.000  0.0000  0.0000  1.0000
 

 ---------------------------------------------------------------------------------

 PrsmSu:  requested number of processors reduced to:  26 ShMem   1 Linda.
 Calling FoFJK, ICntrl=      2127 FMM=F ISym2X=0 I1Cent= 0 IOpClX= 1 NMat=1 NMatS=1 NMatT=0.
 ***** Axes restored to original set *****
 -------------------------------------------------------------------
 Center     Atomic                   Forces (Hartrees/Bohr)
 Number     Number              X              Y              Z
 -------------------------------------------------------------------
      1        6           0.075970312    0.005656263   -0.013840447
      2        6           0.058947816    0.028128683    0.041936905
      3        6          -0.019265612    0.025234142   -0.019344202
      4        6          -0.037284206   -0.057585534   -0.045849196
      5        6          -0.065798677   -0.019382324    0.045388263
      6        6          -0.019758212    0.027403848   -0.014451075
      7        1          -0.007778476    0.000530872    0.001233799
      8        1          -0.005862797   -0.002093397   -0.004839240
      9        1           0.001469132    0.015395892   -0.007451411
     10        1           0.009751039   -0.020566472    0.009203342
     11        1           0.008791374   -0.018908231    0.013578352
     12        1           0.000818308    0.016186259   -0.005565089
 -------------------------------------------------------------------
 Cartesian Forces:  Max     0.075970312 RMS     0.028992572

 GradGradGradGradGradGradGradGradGradGradGradGradGradGradGradGradGradGrad
 Berny optimization.
 FormGI is forming the generalized inverse of G from B-inverse, IUseBI=4.
 Internal  Forces:  Max     0.062152108 RMS     0.018584191
 Search for a local minimum.
 Step number   1 out of a maximum of   84
 All quantities printed in internal units (Hartrees-Bohrs-Radians)
 Mixed Optimization -- RFO/linear search
 Second derivative matrix not updated -- first step.
 ITU=  0
     Eigenvalues ---    0.00932   0.01514   0.01985   0.02890   0.04185
     Eigenvalues ---    0.04401   0.05764   0.05799   0.06940   0.07677
     Eigenvalues ---    0.08244   0.08608   0.12499   0.13644   0.15470
     Eigenvalues ---    0.16000   0.16000   0.25694   0.28299   0.28671
     Eigenvalues ---    0.29604   0.31649   0.31663   0.32329   0.32334
     Eigenvalues ---    0.33188   0.35732   0.35736   0.37498   0.51584
 RFO step:  Lambda=-9.44114088D-02 EMin= 9.32488754D-03
 Linear search not attempted -- first point.
 Maximum step size (   0.300) exceeded in Quadratic search.
    -- Step size scaled by   0.650
 Iteration  1 RMS(Cart)=  0.08942801 RMS(Int)=  0.00310247
 Iteration  2 RMS(Cart)=  0.00325478 RMS(Int)=  0.00041832
 Iteration  3 RMS(Cart)=  0.00000639 RMS(Int)=  0.00041830
 Iteration  4 RMS(Cart)=  0.00000000 RMS(Int)=  0.00041830
 Variable       Old X    -DE/DX   Delta X   Delta X   Delta X     New X
                                 (Linear)    (Quad)   (Total)
    R1        2.54194  -0.02011   0.00000  -0.02276  -0.02367   2.51827
    R2        2.81960   0.04367   0.00000   0.06652   0.06649   2.88609
    R3        2.04497  -0.00040   0.00000  -0.00058  -0.00058   2.04439
    R4        2.82079   0.04339   0.00000   0.06612   0.06613   2.88692
    R5        2.04503  -0.00044   0.00000  -0.00063  -0.00063   2.04439
    R6        2.90590   0.02100   0.00000   0.03564   0.03563   2.94153
    R7        2.61402   0.00310   0.00000   0.00281   0.00363   2.61765
    R8        2.74364   0.04677   0.00000   0.06876   0.06886   2.81250
    R9        2.10246  -0.01109   0.00000  -0.01726  -0.01726   2.08520
   R10        2.11465  -0.02038   0.00000  -0.03223  -0.03223   2.08241
   R11        2.90693   0.02086   0.00000   0.03545   0.03545   2.94238
   R12        2.11490  -0.02046   0.00000  -0.03236  -0.03236   2.08254
   R13        2.10237  -0.01111   0.00000  -0.01729  -0.01729   2.08509
    A1        1.58348   0.00379   0.00000   0.00399   0.00418   1.58766
    A2        2.34905   0.00342   0.00000   0.01160   0.01146   2.36051
    A3        2.35065  -0.00720   0.00000  -0.01556  -0.01570   2.33495
    A4        1.58367   0.00405   0.00000   0.00448   0.00470   1.58836
    A5        2.34894   0.00334   0.00000   0.01154   0.01137   2.36031
    A6        2.35056  -0.00739   0.00000  -0.01594  -0.01610   2.33447
    A7        1.70903   0.06215   0.00000   0.17447   0.17440   1.88343
    A8        1.55747  -0.00394   0.00000  -0.00432  -0.00455   1.55292
    A9        1.59241   0.00749   0.00000   0.01147   0.01122   1.60363
   A10        1.54951  -0.00756   0.00000  -0.01154  -0.01128   1.53823
   A11        1.92743   0.01106   0.00000   0.03423   0.03419   1.96162
   A12        2.07454  -0.00862   0.00000  -0.03718  -0.03695   2.03759
   A13        1.94992   0.00431   0.00000   0.01178   0.01120   1.96112
   A14        1.99338   0.00889   0.00000   0.02866   0.02875   2.02214
   A15        1.93860  -0.00669   0.00000  -0.01995  -0.02002   1.91858
   A16        1.54747  -0.00715   0.00000  -0.01061  -0.01036   1.53711
   A17        1.98842   0.00886   0.00000   0.02888   0.02898   2.01740
   A18        1.95505   0.00412   0.00000   0.01125   0.01065   1.96570
   A19        2.07710  -0.00903   0.00000  -0.03866  -0.03841   2.03869
   A20        1.92776   0.01110   0.00000   0.03465   0.03458   1.96234
   A21        1.93784  -0.00652   0.00000  -0.01957  -0.01964   1.91820
   A22        1.55856  -0.00390   0.00000  -0.00415  -0.00432   1.55424
   A23        1.70735   0.06199   0.00000   0.17412   0.17407   1.88142
   A24        1.59377   0.00722   0.00000   0.01069   0.01042   1.60419
    D1       -0.00297   0.00017   0.00000   0.00077   0.00076  -0.00222
    D2       -3.13883  -0.00065   0.00000  -0.01377  -0.01417   3.13019
    D3        3.13661   0.00082   0.00000   0.01435   0.01471  -3.13187
    D4        0.00075  -0.00001   0.00000  -0.00020  -0.00022   0.00053
    D5        0.00321  -0.00014   0.00000  -0.00076  -0.00076   0.00245
    D6       -1.58910  -0.00632   0.00000  -0.00937  -0.00902  -1.59811
    D7       -3.13637  -0.00081   0.00000  -0.01442  -0.01442   3.13240
    D8        1.55451  -0.00698   0.00000  -0.02302  -0.02267   1.53184
    D9        1.59398   0.00622   0.00000   0.00837   0.00800   1.60198
   D10        0.00321  -0.00014   0.00000  -0.00076  -0.00076   0.00244
   D11       -1.55336   0.00711   0.00000   0.02310   0.02270  -1.53066
   D12        3.13906   0.00075   0.00000   0.01396   0.01394  -3.13019
   D13       -1.55551   0.00159   0.00000  -0.00130  -0.00282  -1.55832
   D14        2.75938  -0.00153   0.00000  -0.01398  -0.01499   2.74439
   D15        0.48953   0.00517   0.00000   0.01560   0.01480   0.50433
   D16        0.00484  -0.00009   0.00000  -0.00055  -0.00054   0.00429
   D17       -1.96346  -0.00321   0.00000  -0.01323  -0.01271  -1.97618
   D18        2.04988   0.00349   0.00000   0.01635   0.01708   2.06695
   D19       -0.00289   0.00020   0.00000   0.00078   0.00076  -0.00213
   D20        1.70422   0.06205   0.00000   0.17477   0.17471   1.87893
   D21       -1.71168  -0.06182   0.00000  -0.17353  -0.17349  -1.88517
   D22       -0.00457   0.00004   0.00000   0.00046   0.00046  -0.00411
   D23       -0.00435   0.00011   0.00000   0.00054   0.00053  -0.00382
   D24        2.11370  -0.01148   0.00000  -0.04112  -0.04127   2.07242
   D25       -1.95156  -0.00947   0.00000  -0.03413  -0.03417  -1.98573
   D26        1.94267   0.00951   0.00000   0.03442   0.03445   1.97712
   D27       -2.22247  -0.00207   0.00000  -0.00725  -0.00735  -2.22982
   D28       -0.00453  -0.00007   0.00000  -0.00025  -0.00025  -0.00479
   D29       -2.12178   0.01146   0.00000   0.04114   0.04128  -2.08050
   D30       -0.00374  -0.00012   0.00000  -0.00052  -0.00052  -0.00426
   D31        2.21420   0.00188   0.00000   0.00647   0.00658   2.22077
   D32        1.56644  -0.00169   0.00000   0.00051   0.00198   1.56842
   D33        0.00484  -0.00009   0.00000  -0.00055  -0.00054   0.00429
   D34       -0.47221  -0.00541   0.00000  -0.01703  -0.01625  -0.48846
   D35       -2.03381  -0.00382   0.00000  -0.01809  -0.01877  -2.05258
   D36       -2.74369   0.00139   0.00000   0.01303   0.01401  -2.72968
   D37        1.97789   0.00299   0.00000   0.01197   0.01149   1.98939
         Item               Value     Threshold  Converged?
 Maximum Force            0.062152     0.000450     NO 
 RMS     Force            0.018584     0.000300     NO 
 Maximum Displacement     0.293454     0.001800     NO 
 RMS     Displacement     0.087551     0.001200     NO 
 Predicted change in Energy=-4.894284D-02
 GradGradGradGradGradGradGradGradGradGradGradGradGradGradGradGradGradGrad

                          Input orientation:                          
 ---------------------------------------------------------------------
 Center     Atomic      Atomic             Coordinates (Angstroms)
 Number     Number       Type             X           Y           Z
 ---------------------------------------------------------------------
      1          6           0        1.190968    0.733077    0.818148
      2          6           0        1.557674    0.243380   -0.365736
      3          6           0        0.639773   -0.963746   -0.180952
      4          6           0       -0.739876   -0.617301   -0.813033
      5          6           0       -1.150004   -0.062377    0.505648
      6          6           0        0.256327   -0.452698    1.048104
      7          1           0        1.435405    1.616094    1.393404
      8          1           0        2.225289    0.561736   -1.155249
      9          1           0       -1.315070   -1.518351   -1.086596
     10          1           0       -0.735322    0.094991   -1.653835
     11          1           0       -1.405326    1.009650    0.512312
     12          1           0       -1.959838   -0.644357    0.977785
 ---------------------------------------------------------------------
                    Distance matrix (angstroms):
                    1          2          3          4          5
     1  C    0.000000
     2  C    1.332612   0.000000
     3  C    2.044804   1.527691   0.000000
     4  C    2.865734   2.493909   1.556593   0.000000
     5  C    2.492097   2.860824   2.118298   1.488310   0.000000
     6  C    1.527251   2.043764   1.385201   2.117392   1.557040
     7  H    1.081845   2.234696   3.125252   3.819459   3.207758
     8  H    2.234607   1.081846   2.406286   3.209275   3.813227
     9  H    3.870038   3.446156   2.224676   1.103438   2.163873
    10  H    3.198194   2.634207   2.276223   1.101965   2.204562
    11  H    2.628834   3.183944   2.925292   2.201438   1.102032
    12  H    3.442439   3.868594   2.864028   2.167042   1.103380
                    6          7          8          9         10
     6  C    0.000000
     7  H    2.406108   0.000000
     8  H    3.124204   2.869010   0.000000
     9  H    2.856895   4.851830   4.106777   0.000000
    10  H    2.929813   4.038747   3.038364   1.805752   0.000000
    11  H    2.277416   3.035432   4.020292   2.992564   2.444933
    12  H    2.225549   4.100007   4.849720   2.332651   2.995246
                   11         12
    11  H    0.000000
    12  H    1.805516   0.000000
 Stoichiometry    C6H6
 Framework group  C1[X(C6H6)]
 Deg. of freedom    30
 Full point group                 C1      NOp   1
 Largest Abelian subgroup         C1      NOp   1
 Largest concise Abelian subgroup C1      NOp   1
                         Standard orientation:                         
 ---------------------------------------------------------------------
 Center     Atomic      Atomic             Coordinates (Angstroms)
 Number     Number       Type             X           Y           Z
 ---------------------------------------------------------------------
      1          6           0        1.313424    0.664976   -0.185651
      2          6           0        1.309802   -0.667624   -0.190152
      3          6           0        0.063614   -0.694058    0.693112
      4          6           0       -1.182526   -0.742104   -0.238450
      5          6           0       -1.176712    0.746191   -0.242014
      6          6           0        0.065768    0.691140    0.694783
      7          1           0        1.932583    1.433073   -0.629563
      8          1           0        1.925145   -1.435911   -0.639016
      9          1           0       -2.070439   -1.157266    0.268330
     10          1           0       -1.049784   -1.225623   -1.219732
     11          1           0       -1.035722    1.219258   -1.227308
     12          1           0       -2.062004    1.175344    0.257517
 ---------------------------------------------------------------------
 Rotational constants (GHZ):      8.0245408      4.5677549      3.6520869
 Standard basis: CC-pVTZ (5D, 7F)
 There are   300 symmetry adapted cartesian basis functions of A   symmetry.
 There are   264 symmetry adapted basis functions of A   symmetry.
   264 basis functions,   414 primitive gaussians,   300 cartesian basis functions
    21 alpha electrons       21 beta electrons
       nuclear repulsion energy       210.4158978139 Hartrees.
 NAtoms=   12 NActive=   12 NUniq=   12 SFac= 1.00D+00 NAtFMM=   60 NAOKFM=F Big=F
 Integral buffers will be    131072 words long.
 Raffenetti 2 integral format.
 Two-electron integral symmetry is turned on.
 One-electron integrals computed using PRISM.
 PrsmSu:  requested number of processors reduced to:  25 ShMem   1 Linda.
 NBasis=   264 RedAO= T EigKep=  1.25D-04  NBF=   264
 NBsUse=   264 1.00D-06 EigRej= -1.00D+00 NBFU=   264
 Initial guess from the checkpoint file:  "s2_4_4_diene_1_m.chk"
 B after Tr=     0.000000    0.000000    0.000000
         Rot=    0.999996   -0.000033   -0.002918   -0.000277 Ang=  -0.34 deg.
 Initial guess <Sx>= 0.0000 <Sy>= 0.0000 <Sz>= 0.0000 <S**2>= 0.0000 S= 0.0000
 ExpMin= 1.03D-01 ExpMax= 8.24D+03 ExpMxC= 2.81D+02 IAcc=1 IRadAn=         1 AccDes= 0.00D+00
 Harris functional with IExCor= 1009 and IRadAn=       1 diagonalized for initial guess.
 HarFok:  IExCor= 1009 AccDes= 0.00D+00 IRadAn=         1 IDoV= 1 UseB2=F ITyADJ=14
 ICtDFT=  3500011 ScaDFX=  1.000000  1.000000  1.000000  1.000000
 FoFCou: FMM=F IPFlag=           0 FMFlag=      100000 FMFlg1=           0
         NFxFlg=           0 DoJE=T BraDBF=F KetDBF=T FulRan=T
         wScrn=  0.000000 ICntrl=     500 IOpCl=  0 I1Cent=   200000004 NGrid=           0
         NMat0=    1 NMatS0=      1 NMatT0=    0 NMatD0=    1 NMtDS0=    0 NMtDT0=    0
 Petite list used in FoFCou.
 Requested convergence on RMS density matrix=1.00D-08 within 128 cycles.
 Requested convergence on MAX density matrix=1.00D-06.
 Requested convergence on             energy=1.00D-06.
 No special actions if energy rises.
 Integral accuracy reduced to 1.0D-05 until final iterations.
 Initial convergence to 1.0D-05 achieved.  Increase integral accuracy.
 SCF Done:  E(UM062X) =  -231.962027177     A.U. after   15 cycles
            NFock= 15  Conv=0.82D-08     -V/T= 2.0060
 <Sx>= 0.0000 <Sy>= 0.0000 <Sz>= 0.0000 <S**2>= 0.0000 S= 0.0000
 <L.S>= 0.000000000000E+00
 Annihilation of the first spin contaminant:
 S**2 before annihilation     0.0000,   after     0.0000
 PrsmSu:  requested number of processors reduced to:  26 ShMem   1 Linda.
 Calling FoFJK, ICntrl=      2127 FMM=F ISym2X=0 I1Cent= 0 IOpClX= 1 NMat=1 NMatS=1 NMatT=0.
 ***** Axes restored to original set *****
 -------------------------------------------------------------------
 Center     Atomic                   Forces (Hartrees/Bohr)
 Number     Number              X              Y              Z
 -------------------------------------------------------------------
      1        6           0.039411252   -0.005336585   -0.002685335
      2        6           0.031055074    0.005588186    0.024549554
      3        6          -0.019127665    0.032801328   -0.011412839
      4        6          -0.017928418   -0.041865139   -0.016958500
      5        6          -0.032013428   -0.022923584    0.028142027
      6        6          -0.014654437    0.027830299   -0.024030432
      7        1          -0.004473183    0.000793953    0.000418373
      8        1          -0.003432657   -0.000632480   -0.002988166
      9        1           0.002218538    0.009879048   -0.005632548
     10        1           0.008866440   -0.008758995    0.006136918
     11        1           0.008921614   -0.008550456    0.007010848
     12        1           0.001156869    0.011174427   -0.002549899
 -------------------------------------------------------------------
 Cartesian Forces:  Max     0.041865139 RMS     0.018053789

 GradGradGradGradGradGradGradGradGradGradGradGradGradGradGradGradGradGrad
 Berny optimization.
 Using GEDIIS/GDIIS optimizer.
 FormGI is forming the generalized inverse of G from B-inverse, IUseBI=4.
 Internal  Forces:  Max     0.037083755 RMS     0.010335867
 Search for a local minimum.
 Step number   2 out of a maximum of   84
 All quantities printed in internal units (Hartrees-Bohrs-Radians)
 Mixed Optimization -- RFO/linear search
 Update second derivatives using D2CorX and points    1    2
 DE= -4.76D-02 DEPred=-4.89D-02 R= 9.72D-01
 TightC=F SS=  1.41D+00  RLast= 3.99D-01 DXNew= 5.0454D-01 1.1984D+00
 Trust test= 9.72D-01 RLast= 3.99D-01 DXMaxT set to 5.05D-01
 ITU=  1  0
 Use linear search instead of GDIIS.
 Linear search step of   0.542 exceeds DXMaxT=   0.505 but not scaled.
 Quartic linear search produced a step of  1.80736.
 Iteration  1 RMS(Cart)=  0.10365564 RMS(Int)=  0.02859862
 Iteration  2 RMS(Cart)=  0.05128832 RMS(Int)=  0.00258473
 Iteration  3 RMS(Cart)=  0.00231459 RMS(Int)=  0.00211038
 Iteration  4 RMS(Cart)=  0.00000145 RMS(Int)=  0.00211038
 Iteration  5 RMS(Cart)=  0.00000000 RMS(Int)=  0.00211038
 Variable       Old X    -DE/DX   Delta X   Delta X   Delta X     New X
                                 (Linear)    (Quad)   (Total)
    R1        2.51827  -0.01246  -0.04278   0.00000  -0.04747   2.47080
    R2        2.88609   0.01790   0.12017   0.00000   0.11995   3.00604
    R3        2.04439  -0.00014  -0.00105   0.00000  -0.00105   2.04334
    R4        2.88692   0.01778   0.11951   0.00000   0.11948   3.00640
    R5        2.04439  -0.00012  -0.00115   0.00000  -0.00115   2.04325
    R6        2.94153   0.00282   0.06440   0.00000   0.06447   3.00600
    R7        2.61765  -0.00296   0.00656   0.00000   0.01252   2.63017
    R8        2.81250   0.02258   0.12446   0.00000   0.12318   2.93568
    R9        2.08520  -0.00783  -0.03120   0.00000  -0.03120   2.05400
   R10        2.08241  -0.01031  -0.05826   0.00000  -0.05826   2.02416
   R11        2.94238   0.00272   0.06408   0.00000   0.06414   3.00652
   R12        2.08254  -0.01034  -0.05849   0.00000  -0.05849   2.02405
   R13        2.08509  -0.00783  -0.03125   0.00000  -0.03125   2.05384
    A1        1.58766   0.00145   0.00755   0.00000   0.00876   1.59641
    A2        2.36051   0.00222   0.02071   0.00000   0.01979   2.38030
    A3        2.33495  -0.00368  -0.02838   0.00000  -0.02918   2.30577
    A4        1.58836   0.00162   0.00849   0.00000   0.00983   1.59820
    A5        2.36031   0.00217   0.02056   0.00000   0.01953   2.37984
    A6        2.33447  -0.00380  -0.02909   0.00000  -0.02999   2.30448
    A7        1.88343   0.03708   0.31519   0.00000   0.31465   2.19807
    A8        1.55292  -0.00157  -0.00822   0.00000  -0.00961   1.54331
    A9        1.60363   0.00441   0.02028   0.00000   0.01846   1.62210
   A10        1.53823  -0.00444  -0.02039   0.00000  -0.01852   1.51971
   A11        1.96162   0.00697   0.06179   0.00000   0.06140   2.02302
   A12        2.03759  -0.00665  -0.06678   0.00000  -0.06562   1.97197
   A13        1.96112   0.00321   0.02023   0.00000   0.01717   1.97829
   A14        2.02214   0.00498   0.05196   0.00000   0.05223   2.07437
   A15        1.91858  -0.00334  -0.03619   0.00000  -0.03624   1.88234
   A16        1.53711  -0.00418  -0.01872   0.00000  -0.01691   1.52021
   A17        2.01740   0.00504   0.05237   0.00000   0.05267   2.07007
   A18        1.96570   0.00302   0.01925   0.00000   0.01615   1.98185
   A19        2.03869  -0.00694  -0.06942   0.00000  -0.06820   1.97049
   A20        1.96234   0.00700   0.06251   0.00000   0.06203   2.02438
   A21        1.91820  -0.00323  -0.03550   0.00000  -0.03554   1.88266
   A22        1.55424  -0.00151  -0.00781   0.00000  -0.00898   1.54526
   A23        1.88142   0.03702   0.31461   0.00000   0.31419   2.19561
   A24        1.60419   0.00422   0.01884   0.00000   0.01697   1.62116
    D1       -0.00222   0.00007   0.00137   0.00000   0.00128  -0.00094
    D2        3.13019  -0.00051  -0.02560   0.00000  -0.02731   3.10288
    D3       -3.13187   0.00058   0.02658   0.00000   0.02810  -3.10377
    D4        0.00053  -0.00001  -0.00039   0.00000  -0.00048   0.00005
    D5        0.00245  -0.00006  -0.00138   0.00000  -0.00137   0.00108
    D6       -1.59811  -0.00375  -0.01629   0.00000  -0.01529  -1.61340
    D7        3.13240  -0.00049  -0.02606   0.00000  -0.02577   3.10662
    D8        1.53184  -0.00417  -0.04098   0.00000  -0.03969   1.49215
    D9        1.60198   0.00374   0.01446   0.00000   0.01334   1.61531
   D10        0.00244  -0.00006  -0.00138   0.00000  -0.00137   0.00108
   D11       -1.53066   0.00426   0.04103   0.00000   0.03948  -1.49118
   D12       -3.13019   0.00046   0.02519   0.00000   0.02477  -3.10542
   D13       -1.55832  -0.00094  -0.00509   0.00000  -0.01235  -1.57068
   D14        2.74439  -0.00351  -0.02709   0.00000  -0.03209   2.71230
   D15        0.50433   0.00075   0.02675   0.00000   0.02305   0.52738
   D16        0.00429  -0.00005  -0.00098   0.00000  -0.00094   0.00335
   D17       -1.97618  -0.00262  -0.02298   0.00000  -0.02068  -1.99685
   D18        2.06695   0.00164   0.03086   0.00000   0.03446   2.10141
   D19       -0.00213   0.00008   0.00137   0.00000   0.00125  -0.00088
   D20        1.87893   0.03704   0.31576   0.00000   0.31536   2.19429
   D21       -1.88517  -0.03695  -0.31356   0.00000  -0.31328  -2.19844
   D22       -0.00411   0.00002   0.00083   0.00000   0.00083  -0.00327
   D23       -0.00382   0.00005   0.00096   0.00000   0.00089  -0.00293
   D24        2.07242  -0.00888  -0.07459   0.00000  -0.07530   1.99712
   D25       -1.98573  -0.00619  -0.06176   0.00000  -0.06211  -2.04784
   D26        1.97712   0.00618   0.06227   0.00000   0.06254   2.03966
   D27       -2.22982  -0.00274  -0.01328   0.00000  -0.01365  -2.24347
   D28       -0.00479  -0.00006  -0.00045   0.00000  -0.00046  -0.00524
   D29       -2.08050   0.00883   0.07460   0.00000   0.07525  -2.00526
   D30       -0.00426  -0.00009  -0.00095   0.00000  -0.00094  -0.00520
   D31        2.22077   0.00259   0.01188   0.00000   0.01225   2.23302
   D32        1.56842   0.00088   0.00358   0.00000   0.01057   1.57898
   D33        0.00429  -0.00005  -0.00098   0.00000  -0.00094   0.00335
   D34       -0.48846  -0.00098  -0.02937   0.00000  -0.02584  -0.51430
   D35       -2.05258  -0.00190  -0.03393   0.00000  -0.03735  -2.08993
   D36       -2.72968   0.00336   0.02533   0.00000   0.03017  -2.69951
   D37        1.98939   0.00243   0.02077   0.00000   0.01866   2.00805
         Item               Value     Threshold  Converged?
 Maximum Force            0.037084     0.000450     NO 
 RMS     Force            0.010336     0.000300     NO 
 Maximum Displacement     0.470431     0.001800     NO 
 RMS     Displacement     0.147734     0.001200     NO 
 Predicted change in Energy=-1.937546D-02
 GradGradGradGradGradGradGradGradGradGradGradGradGradGradGradGradGradGrad

                          Input orientation:                          
 ---------------------------------------------------------------------
 Center     Atomic      Atomic             Coordinates (Angstroms)
 Number     Number       Type             X           Y           Z
 ---------------------------------------------------------------------
      1          6           0        1.376781    0.789938    0.838258
      2          6           0        1.737152    0.308112   -0.322566
      3          6           0        0.599121   -0.802062   -0.264156
      4          6           0       -0.866646   -0.669226   -0.867676
      5          6           0       -1.294985   -0.090778    0.509011
      6          6           0        0.214640   -0.288143    0.970851
      7          1           0        1.682205    1.608865    1.474864
      8          1           0        2.474231    0.550449   -1.075604
      9          1           0       -1.364348   -1.602987   -1.116264
     10          1           0       -0.908019   -0.035373   -1.730145
     11          1           0       -1.616093    0.929814    0.558961
     12          1           0       -2.034037   -0.698508    1.024467
 ---------------------------------------------------------------------
                    Distance matrix (angstroms):
                    1          2          3          4          5
     1  C    0.000000
     2  C    1.307493   0.000000
     3  C    2.086753   1.590916   0.000000
     4  C    3.173695   2.834097   1.590709   0.000000
     5  C    2.832384   3.169304   2.165952   1.553494   0.000000
     6  C    1.590727   2.084824   1.391826   2.166699   1.590980
     7  H    1.081291   2.219398   3.163831   4.144133   3.561645
     8  H    2.219149   1.081239   2.450260   3.562626   4.138740
     9  H    4.130380   3.728480   2.285340   1.086928   2.221060
    10  H    3.535272   3.015989   2.237947   1.071137   2.273022
    11  H    3.009131   3.522479   2.929861   2.270219   1.071080
    12  H    3.726101   4.129122   2.933393   2.223480   1.086844
                    6          7          8          9         10
     6  C    0.000000
     7  H    2.450799   0.000000
     8  H    3.161798   2.872705   0.000000
     9  H    2.928834   5.129466   4.401548   0.000000
    10  H    2.935921   4.436762   3.494456   1.744277   0.000000
    11  H    2.237109   3.489808   4.421139   3.047103   2.583207
    12  H    2.286443   4.397418   5.127833   2.418532   3.048861
                   11         12
    11  H    0.000000
    12  H    1.744364   0.000000
 Stoichiometry    C6H6
 Framework group  C1[X(C6H6)]
 Deg. of freedom    30
 Full point group                 C1      NOp   1
 Largest Abelian subgroup         C1      NOp   1
 Largest concise Abelian subgroup C1      NOp   1
                         Standard orientation:                         
 ---------------------------------------------------------------------
 Center     Atomic      Atomic             Coordinates (Angstroms)
 Number     Number       Type             X           Y           Z
 ---------------------------------------------------------------------
      1          6           0        1.492485    0.652684   -0.147117
      2          6           0        1.489703   -0.654802   -0.150161
      3          6           0        0.062389   -0.696988    0.551272
      4          6           0       -1.341520   -0.775144   -0.192561
      5          6           0       -1.336701    0.778341   -0.195255
      6          6           0        0.064792    0.694835    0.553117
      7          1           0        2.150665    1.434905   -0.499425
      8          1           0        2.144856   -1.437786   -0.506235
      9          1           0       -2.159872   -1.202368    0.381192
     10          1           0       -1.290758   -1.293811   -1.128371
     11          1           0       -1.277742    1.289355   -1.134723
     12          1           0       -2.154033    1.216139    0.371783
 ---------------------------------------------------------------------
 Rotational constants (GHZ):      8.5846486      3.8738783      3.0583541
 Standard basis: CC-pVTZ (5D, 7F)
 There are   300 symmetry adapted cartesian basis functions of A   symmetry.
 There are   264 symmetry adapted basis functions of A   symmetry.
   264 basis functions,   414 primitive gaussians,   300 cartesian basis functions
    21 alpha electrons       21 beta electrons
       nuclear repulsion energy       203.4569594632 Hartrees.
 NAtoms=   12 NActive=   12 NUniq=   12 SFac= 1.00D+00 NAtFMM=   60 NAOKFM=F Big=F
 Integral buffers will be    131072 words long.
 Raffenetti 2 integral format.
 Two-electron integral symmetry is turned on.
 One-electron integrals computed using PRISM.
 PrsmSu:  requested number of processors reduced to:  25 ShMem   1 Linda.
 NBasis=   264 RedAO= T EigKep=  1.35D-04  NBF=   264
 NBsUse=   264 1.00D-06 EigRej= -1.00D+00 NBFU=   264
 Initial guess from the checkpoint file:  "s2_4_4_diene_1_m.chk"
 B after Tr=     0.000000    0.000000    0.000000
         Rot=    0.999991   -0.000051   -0.004292   -0.000225 Ang=  -0.49 deg.
 Initial guess <Sx>= 0.0000 <Sy>= 0.0000 <Sz>= 0.0000 <S**2>= 0.0000 S= 0.0000
 ExpMin= 1.03D-01 ExpMax= 8.24D+03 ExpMxC= 2.81D+02 IAcc=1 IRadAn=         1 AccDes= 0.00D+00
 Harris functional with IExCor= 1009 and IRadAn=       1 diagonalized for initial guess.
 HarFok:  IExCor= 1009 AccDes= 0.00D+00 IRadAn=         1 IDoV= 1 UseB2=F ITyADJ=14
 ICtDFT=  3500011 ScaDFX=  1.000000  1.000000  1.000000  1.000000
 FoFCou: FMM=F IPFlag=           0 FMFlag=      100000 FMFlg1=           0
         NFxFlg=           0 DoJE=T BraDBF=F KetDBF=T FulRan=T
         wScrn=  0.000000 ICntrl=     500 IOpCl=  0 I1Cent=   200000004 NGrid=           0
         NMat0=    1 NMatS0=      1 NMatT0=    0 NMatD0=    1 NMtDS0=    0 NMtDT0=    0
 Petite list used in FoFCou.
 Requested convergence on RMS density matrix=1.00D-08 within 128 cycles.
 Requested convergence on MAX density matrix=1.00D-06.
 Requested convergence on             energy=1.00D-06.
 No special actions if energy rises.
 Integral accuracy reduced to 1.0D-05 until final iterations.
 Initial convergence to 1.0D-05 achieved.  Increase integral accuracy.
 SCF Done:  E(UM062X) =  -231.990983368     A.U. after   14 cycles
            NFock= 14  Conv=0.43D-08     -V/T= 2.0072
 <Sx>= 0.0000 <Sy>= 0.0000 <Sz>= 0.0000 <S**2>= 0.0000 S= 0.0000
 <L.S>= 0.000000000000E+00
 Annihilation of the first spin contaminant:
 S**2 before annihilation     0.0000,   after     0.0000
 PrsmSu:  requested number of processors reduced to:  26 ShMem   1 Linda.
 Calling FoFJK, ICntrl=      2127 FMM=F ISym2X=0 I1Cent= 0 IOpClX= 1 NMat=1 NMatS=1 NMatT=0.
 ***** Axes restored to original set *****
 -------------------------------------------------------------------
 Center     Atomic                   Forces (Hartrees/Bohr)
 Number     Number              X              Y              Z
 -------------------------------------------------------------------
      1        6          -0.012485587   -0.005241152    0.022008504
      2        6          -0.000674441   -0.020749818   -0.015580445
      3        6          -0.020040875    0.032360580    0.015393337
      4        6           0.011136195   -0.014113681    0.024330046
      5        6           0.018317148   -0.023934548    0.000795417
      6        6          -0.003130736    0.009634229   -0.039770479
      7        1           0.000230698   -0.000399889   -0.000628103
      8        1          -0.000140017    0.000209272    0.000665789
      9        1           0.003283698   -0.002282325   -0.002212830
     10        1           0.001264341    0.011831357   -0.005134080
     11        1           0.001119881    0.012278149   -0.004073110
     12        1           0.001119695    0.000407825    0.004205955
 -------------------------------------------------------------------
 Cartesian Forces:  Max     0.039770479 RMS     0.013857837

 GradGradGradGradGradGradGradGradGradGradGradGradGradGradGradGradGradGrad
 Berny optimization.
 Using GEDIIS/GDIIS optimizer.
 FormGI is forming the generalized inverse of G from B-inverse, IUseBI=4.
 Internal  Forces:  Max     0.020522182 RMS     0.005881297
 Search for a local minimum.
 Step number   3 out of a maximum of   84
 All quantities printed in internal units (Hartrees-Bohrs-Radians)
 Mixed Optimization -- RFO/linear search
 Update second derivatives using D2CorX and points    2    3
 ITU=  0  1  0
 Use linear search instead of GDIIS.
     Eigenvalues ---    0.00936   0.01592   0.01976   0.02686   0.03810
     Eigenvalues ---    0.04379   0.05483   0.05572   0.06715   0.07789
     Eigenvalues ---    0.08090   0.08226   0.08521   0.09825   0.15960
     Eigenvalues ---    0.15980   0.19841   0.21803   0.25857   0.28554
     Eigenvalues ---    0.29317   0.31656   0.31988   0.32331   0.32415
     Eigenvalues ---    0.33180   0.35733   0.35737   0.38750   0.52403
 RFO step:  Lambda=-1.11982913D-02 EMin= 9.35782117D-03
 Quartic linear search produced a step of  0.00064.
 Iteration  1 RMS(Cart)=  0.03242815 RMS(Int)=  0.00131555
 Iteration  2 RMS(Cart)=  0.00149755 RMS(Int)=  0.00060546
 Iteration  3 RMS(Cart)=  0.00000159 RMS(Int)=  0.00060546
 Iteration  4 RMS(Cart)=  0.00000000 RMS(Int)=  0.00060546
 Variable       Old X    -DE/DX   Delta X   Delta X   Delta X     New X
                                 (Linear)    (Quad)   (Total)
    R1        2.47080   0.00855  -0.00003   0.02501   0.02370   2.49450
    R2        3.00604  -0.01424   0.00008  -0.03205  -0.03200   2.97403
    R3        2.04334  -0.00061   0.00000  -0.00170  -0.00170   2.04164
    R4        3.00640  -0.01423   0.00008  -0.03234  -0.03227   2.97412
    R5        2.04325  -0.00051   0.00000  -0.00145  -0.00145   2.04180
    R6        3.00600  -0.02049   0.00004  -0.06475  -0.06464   2.94137
    R7        2.63017  -0.01392   0.00001  -0.05301  -0.05061   2.57956
    R8        2.93568  -0.01424   0.00008  -0.01430  -0.01533   2.92035
    R9        2.05400   0.00096  -0.00002   0.00054   0.00052   2.05451
   R10        2.02416   0.01109  -0.00004   0.02935   0.02932   2.05347
   R11        3.00652  -0.02052   0.00004  -0.06494  -0.06484   2.94168
   R12        2.02405   0.01117  -0.00004   0.02961   0.02957   2.05362
   R13        2.05384   0.00101  -0.00002   0.00066   0.00064   2.05448
    A1        1.59641  -0.00353   0.00001  -0.01222  -0.01174   1.58467
    A2        2.38030   0.00133   0.00001   0.00511   0.00491   2.38521
    A3        2.30577   0.00223  -0.00002   0.00726   0.00699   2.31276
    A4        1.59820  -0.00370   0.00001  -0.01318  -0.01268   1.58552
    A5        2.37984   0.00140   0.00001   0.00552   0.00531   2.38515
    A6        2.30448   0.00233  -0.00002   0.00779   0.00751   2.31199
    A7        2.19807   0.00778   0.00020   0.07741   0.07736   2.27543
    A8        1.54331   0.00368  -0.00001   0.01323   0.01274   1.55605
    A9        1.62210   0.00022   0.00001   0.00736   0.00693   1.62902
   A10        1.51971  -0.00024  -0.00001  -0.00744  -0.00701   1.51270
   A11        2.02302  -0.00115   0.00004  -0.00615  -0.00644   2.01657
   A12        1.97197  -0.00072  -0.00004  -0.02035  -0.02143   1.95054
   A13        1.97829   0.00102   0.00001   0.04703   0.04671   2.02499
   A14        2.07437  -0.00126   0.00003  -0.03923  -0.03945   2.03492
   A15        1.88234   0.00173  -0.00002   0.01844   0.01884   1.90118
   A16        1.52021  -0.00035  -0.00001  -0.00765  -0.00724   1.51297
   A17        2.07007  -0.00112   0.00003  -0.03760  -0.03783   2.03225
   A18        1.98185   0.00096   0.00001   0.04557   0.04522   2.02707
   A19        1.97049  -0.00074  -0.00004  -0.02169  -0.02274   1.94775
   A20        2.02438  -0.00108   0.00004  -0.00491  -0.00519   2.01918
   A21        1.88266   0.00171  -0.00002   0.01850   0.01888   1.90154
   A22        1.54526   0.00354  -0.00001   0.01217   0.01168   1.55694
   A23        2.19561   0.00780   0.00020   0.07795   0.07791   2.27351
   A24        1.62116   0.00037   0.00001   0.00773   0.00732   1.62848
    D1       -0.00094  -0.00002   0.00000   0.00012   0.00012  -0.00082
    D2        3.10288   0.00104  -0.00002   0.00394   0.00442   3.10730
    D3       -3.10377  -0.00107   0.00002  -0.00412  -0.00459  -3.10836
    D4        0.00005  -0.00001   0.00000  -0.00030  -0.00029  -0.00025
    D5        0.00108   0.00002   0.00000  -0.00013  -0.00013   0.00094
    D6       -1.61340  -0.00303  -0.00001  -0.01888  -0.02032  -1.63372
    D7        3.10662   0.00098  -0.00002   0.00377   0.00421   3.11084
    D8        1.49215  -0.00207  -0.00003  -0.01498  -0.01597   1.47617
    D9        1.61531   0.00299   0.00001   0.01886   0.02033   1.63564
   D10        0.00108   0.00002   0.00000  -0.00013  -0.00013   0.00094
   D11       -1.49118   0.00203   0.00003   0.01535   0.01637  -1.47481
   D12       -3.10542  -0.00094   0.00002  -0.00364  -0.00409  -3.10950
   D13       -1.57068  -0.00512  -0.00001  -0.02652  -0.02761  -1.59829
   D14        2.71230  -0.00596  -0.00002  -0.07457  -0.07540   2.63691
   D15        0.52738  -0.00675   0.00001  -0.07702  -0.07736   0.45003
   D16        0.00335   0.00001   0.00000  -0.00066  -0.00066   0.00269
   D17       -1.99685  -0.00083  -0.00001  -0.04871  -0.04845  -2.04530
   D18        2.10141  -0.00162   0.00002  -0.05116  -0.05041   2.05101
   D19       -0.00088  -0.00003   0.00000   0.00008   0.00009  -0.00079
   D20        2.19429   0.00794   0.00020   0.07870   0.07888   2.27317
[...]
    D9        1.68369  -0.00002   0.00000  -0.00064  -0.00064   1.68305
   D10       -0.00013   0.00000   0.00000   0.00012   0.00012  -0.00001
   D11       -1.48205  -0.00002   0.00000  -0.00086  -0.00086  -1.48291
   D12        3.11731   0.00001   0.00000  -0.00009  -0.00009   3.11722
   D13       -1.65597   0.00002   0.00000   0.00011   0.00011  -1.65585
   D14        2.52261   0.00000   0.00000  -0.00037  -0.00037   2.52224
   D15        0.29476   0.00001   0.00000   0.00006   0.00006   0.29483
   D16        0.00064   0.00000   0.00000  -0.00062  -0.00062   0.00002
   D17       -2.10398  -0.00002   0.00000  -0.00110  -0.00110  -2.10507
   D18        1.95137   0.00000   0.00000  -0.00067  -0.00067   1.95070
   D19        0.00011   0.00000   0.00000  -0.00011  -0.00011   0.00000
   D20        2.45301   0.00002   0.00000   0.00039   0.00039   2.45340
   D21       -2.45355  -0.00002   0.00000   0.00013   0.00013  -2.45341
   D22       -0.00065   0.00000   0.00000   0.00063   0.00063  -0.00002
   D23       -0.00056   0.00000   0.00000   0.00054   0.00054  -0.00002
   D24        1.96664   0.00001   0.00000   0.00095   0.00095   1.96759
   D25       -2.07571   0.00001   0.00000   0.00114   0.00114  -2.07457
   D26        2.07370   0.00000   0.00000   0.00082   0.00082   2.07452
   D27       -2.24229   0.00000   0.00000   0.00122   0.00122  -2.24107
   D28       -0.00145   0.00000   0.00000   0.00142   0.00142  -0.00004
   D29       -1.96852   0.00000   0.00000   0.00088   0.00088  -1.96764
   D30       -0.00132   0.00000   0.00000   0.00128   0.00128  -0.00004
   D31        2.23952   0.00001   0.00000   0.00148   0.00148   2.24099
   D32        1.65618  -0.00001   0.00000  -0.00032  -0.00032   1.65586
   D33        0.00064   0.00000   0.00000  -0.00062  -0.00062   0.00002
   D34       -0.29397  -0.00001   0.00000  -0.00084  -0.00084  -0.29481
   D35       -1.94951   0.00000   0.00000  -0.00114  -0.00114  -1.95065
   D36       -2.52170   0.00000   0.00000  -0.00051  -0.00051  -2.52221
   D37        2.10594   0.00001   0.00000  -0.00081  -0.00081   2.10513
         Item               Value     Threshold  Converged?
 Maximum Force            0.000106     0.000450     YES
 RMS     Force            0.000017     0.000300     YES
 Maximum Displacement     0.001734     0.001800     YES
 RMS     Displacement     0.000434     0.001200     YES
 Predicted change in Energy=-1.194551D-07
 Optimization completed.
    -- Stationary point found.
                           ----------------------------
                           !   Optimized Parameters   !
                           ! (Angstroms and Degrees)  !
 --------------------------                            --------------------------
 ! Name  Definition              Value          Derivative Info.                !
 --------------------------------------------------------------------------------
 ! R1    R(1,2)                  1.3299         -DE/DX =    0.0                 !
 ! R2    R(1,6)                  1.5638         -DE/DX =    0.0                 !
 ! R3    R(1,7)                  1.0803         -DE/DX =    0.0                 !
 ! R4    R(2,3)                  1.5636         -DE/DX =    0.0                 !
 ! R5    R(2,8)                  1.0802         -DE/DX =    0.0                 !
 ! R6    R(3,4)                  1.5289         -DE/DX =    0.0                 !
 ! R7    R(3,6)                  1.3375         -DE/DX =    0.0                 !
 ! R8    R(4,5)                  1.5621         -DE/DX =   -0.0001              !
 ! R9    R(4,9)                  1.0884         -DE/DX =    0.0                 !
 ! R10   R(4,10)                 1.0906         -DE/DX =    0.0                 !
 ! R11   R(5,6)                  1.5289         -DE/DX =    0.0                 !
 ! R12   R(5,11)                 1.0906         -DE/DX =    0.0                 !
 ! R13   R(5,12)                 1.0884         -DE/DX =    0.0                 !
 ! A1    A(2,1,6)               90.1435         -DE/DX =    0.0                 !
 ! A2    A(2,1,7)              135.2098         -DE/DX =    0.0                 !
 ! A3    A(6,1,7)              134.63           -DE/DX =    0.0                 !
 ! A4    A(1,2,3)               90.1358         -DE/DX =    0.0                 !
 ! A5    A(1,2,8)              135.2113         -DE/DX =    0.0                 !
 ! A6    A(3,2,8)              134.636          -DE/DX =    0.0                 !
 ! A7    A(2,3,4)              140.4102         -DE/DX =    0.0                 !
 ! A8    A(2,3,6)               89.8699         -DE/DX =    0.0                 !
 ! A9    A(4,3,6)               94.2223         -DE/DX =    0.0                 !
 ! A10   A(3,4,5)               85.7821         -DE/DX =    0.0                 !
 ! A11   A(3,4,9)              117.1571         -DE/DX =    0.0                 !
 ! A12   A(3,4,10)             112.6825         -DE/DX =    0.0                 !
 ! A13   A(5,4,9)              119.0173         -DE/DX =    0.0                 !
 ! A14   A(5,4,10)             111.6916         -DE/DX =    0.0                 !
 ! A15   A(9,4,10)             108.99           -DE/DX =    0.0                 !
 ! A16   A(4,5,6)               85.7927         -DE/DX =    0.0                 !
 ! A17   A(4,5,11)             111.6603         -DE/DX =    0.0                 !
 ! A18   A(4,5,12)             119.0403         -DE/DX =    0.0                 !
 ! A19   A(6,5,11)             112.6407         -DE/DX =    0.0                 !
 ! A20   A(6,5,12)             117.1915         -DE/DX =    0.0                 !
 ! A21   A(11,5,12)            108.9917         -DE/DX =    0.0                 !
 ! A22   A(1,6,3)               89.8508         -DE/DX =    0.0                 !
 ! A23   A(1,6,5)              140.3707         -DE/DX =    0.0                 !
 ! A24   A(3,6,5)               94.2029         -DE/DX =    0.0                 !
 ! D1    D(6,1,2,3)              0.0064         -DE/DX =    0.0                 !
 ! D2    D(6,1,2,8)           -178.5958         -DE/DX =    0.0                 !
 ! D3    D(7,1,2,3)            178.615          -DE/DX =    0.0                 !
 ! D4    D(7,1,2,8)              0.0128         -DE/DX =    0.0                 !
 ! D5    D(2,1,6,3)             -0.0074         -DE/DX =    0.0                 !
 ! D6    D(2,1,6,5)            -96.4243         -DE/DX =    0.0                 !
 ! D7    D(7,1,6,3)           -178.63           -DE/DX =    0.0                 !
 ! D8    D(7,1,6,5)             84.9531         -DE/DX =    0.0                 !
 ! D9    D(1,2,3,4)             96.4685         -DE/DX =    0.0                 !
 ! D10   D(1,2,3,6)             -0.0074         -DE/DX =    0.0                 !
 ! D11   D(8,2,3,4)            -84.9154         -DE/DX =    0.0                 !
 ! D12   D(8,2,3,6)            178.6087         -DE/DX =    0.0                 !
 ! D13   D(2,3,4,5)            -94.8798         -DE/DX =    0.0                 !
 ! D14   D(2,3,4,9)            144.5347         -DE/DX =    0.0                 !
 ! D15   D(2,3,4,10)            16.8888         -DE/DX =    0.0                 !
 ! D16   D(6,3,4,5)              0.0365         -DE/DX =    0.0                 !
 ! D17   D(6,3,4,9)           -120.549          -DE/DX =    0.0                 !
 ! D18   D(6,3,4,10)           111.8051         -DE/DX =    0.0                 !
 ! D19   D(2,3,6,1)              0.0063         -DE/DX =    0.0                 !
 ! D20   D(2,3,6,5)            140.5469         -DE/DX =    0.0                 !
 ! D21   D(4,3,6,1)           -140.5779         -DE/DX =    0.0                 !
 ! D22   D(4,3,6,5)             -0.0373         -DE/DX =    0.0                 !
 ! D23   D(3,4,5,6)             -0.0319         -DE/DX =    0.0                 !
 ! D24   D(3,4,5,11)           112.6803         -DE/DX =    0.0                 !
 ! D25   D(3,4,5,12)          -118.9294         -DE/DX =    0.0                 !
 ! D26   D(9,4,5,6)            118.8142         -DE/DX =    0.0                 !
 ! D27   D(9,4,5,11)          -128.4736         -DE/DX =    0.0                 !
 ! D28   D(9,4,5,12)            -0.0833         -DE/DX =    0.0                 !
 ! D29   D(10,4,5,6)          -112.7877         -DE/DX =    0.0                 !
 ! D30   D(10,4,5,11)           -0.0755         -DE/DX =    0.0                 !
 ! D31   D(10,4,5,12)          128.3148         -DE/DX =    0.0                 !
 ! D32   D(4,5,6,1)             94.892          -DE/DX =    0.0                 !
 ! D33   D(4,5,6,3)              0.0365         -DE/DX =    0.0                 !
 ! D34   D(11,5,6,1)           -16.8433         -DE/DX =    0.0                 !
 ! D35   D(11,5,6,3)          -111.6988         -DE/DX =    0.0                 !
 ! D36   D(12,5,6,1)          -144.4829         -DE/DX =    0.0                 !
 ! D37   D(12,5,6,3)           120.6616         -DE/DX =    0.0                 !
 --------------------------------------------------------------------------------
 GradGradGradGradGradGradGradGradGradGradGradGradGradGradGradGradGradGrad

 1\1\GINC-NID02079\Freq\UM062X\CC-pVTZ\C6H6\KEHANGHA\23-Jan-2017\0\\#N 
 Geom=AllCheck Guess=TCheck SCRF=Check GenChk UM062X/CC-pVTZ Freq\\s2_4
 _4_diene_1_m\\0,1\C,1.4069665468,0.8045643664,0.8528856379\C,1.7751026
 723,0.311153951,-0.3259527687\C,0.5308424629,-0.6357970095,-0.32234859
 2\C,-0.8966419053,-0.7076239755,-0.8650501955\C,-1.3291072738,-0.12736
 73463,0.5193504312\C,0.1605835122,-0.1397612275,0.8633276203\H,1.81057
 5501,1.5361395662,1.5376122269\H,2.6032214143,0.473714062,-1.000289636
 \H,-1.2651753466,-1.686613383,-1.1655617882\H,-1.0754919811,0.00235448
 4,-1.6733507251\H,-1.7298375373,0.8825735549,0.4250952937\H,-1.9910380
 654,-0.7132370427,1.1542824954\\Version=ES64L-G09RevD.01\State=1-A\HF=
 -232.0030216\S2=0.\S2-1=0.\S2A=0.\RMSD=3.454e-09\RMSF=4.923e-05\ZeroPo
 int=0.0961205\Thermal=0.1014219\Dipole=-0.1549129,0.4034314,-0.218027\
 DipoleDeriv=-0.0674087,0.2821356,0.0947981,0.0692389,-0.0249479,0.1064
 192,-0.0736311,0.0632549,0.1544087,0.0744482,0.058634,-0.3144663,0.068
 7376,0.0191068,0.0455351,-0.0614391,0.1517947,-0.0323382,-0.1017167,0.
 1039145,0.1580968,0.1862003,-0.3698648,-0.3881161,0.0840178,-0.1450334
 ,-0.0231203,0.057777,-0.0357134,0.0585983,0.0295206,0.2159699,0.09299,
 0.0416269,0.0358187,0.0772436,0.1236611,-0.0314239,-0.045258,0.0454001
 ,0.0730754,-0.0961774,-0.0875613,-0.083145,0.1552,0.0020726,-0.0726319
 ,0.0114798,-0.096438,0.0554955,0.2618663,0.0610032,0.0005109,-0.555154
 1,0.0211987,-0.1166034,-0.0404672,-0.1160879,0.0474262,-0.0921996,-0.0
 113445,-0.0686069,0.0891242,-0.0395602,-0.0849814,0.0804984,-0.1153861
 ,0.1133972,0.0043671,0.0638905,-0.0098486,0.0839512,-0.0026177,-0.0641
 021,-0.04511,-0.0901448,-0.0744056,-0.083028,-0.0393836,-0.0556479,0.0
 173921,0.0240307,-0.0180736,-0.0483349,0.0212346,-0.0059466,0.1035063,
 -0.044994,0.0412688,-0.0328431,-0.0145981,0.0265789,0.0193139,0.077471
 1,-0.07244,-0.0017044,-0.0217615,0.0323453,0.0719901,-0.0772868,-0.047
 7334,0.0708511,-0.0797464,0.0231341,0.0465416,0.0895767,0.0372886,-0.0
 058541\Polar=70.3142798,7.6382199,50.8302933,-1.730551,8.5769434,61.48
 95552\PG=C01 [X(C6H6)]\NImag=0\\0.31080912,0.11626077,0.42664765,-0.06
 347386,0.33578644,0.68027283,-0.07842236,0.06812465,0.12890094,0.46020
 066,0.06745708,-0.11977929,-0.17127874,0.07728673,0.26314547,0.1219365
 5,-0.16406910,-0.46156490,-0.30468155,0.14347724,0.69449507,-0.0338773
 0,-0.06330930,-0.01788639,-0.09577754,-0.07379600,-0.02581948,0.448428
 38,-0.03794033,-0.04039055,-0.02690215,-0.06761175,-0.07926920,0.02276
 202,0.07457796,0.21505042,-0.00475642,-0.03375617,-0.03393894,0.006129
 86,0.03451154,-0.04021501,-0.05284251,0.16683194,0.58864119,-0.0074394
 9,-0.00048488,-0.00293232,-0.00290554,0.00337723,-0.00669635,-0.154126
 14,-0.02844635,-0.06672709,0.36175463,-0.00194699,0.00793414,-0.004086
 71,0.00276291,0.00076992,-0.01071684,-0.01906341,-0.05270059,0.0329553
 0,0.06851828,0.57351696,0.00474867,-0.00690086,-0.00746483,0.00877275,
 0.00043782,0.00084244,-0.03550612,0.01867057,-0.05316306,0.08784323,-0
 .01842680,0.51215775,-0.00095435,0.00775587,0.00332943,-0.00756773,0.0
 0213228,0.00327858,-0.06525755,0.00418430,0.01676602,-0.04744094,0.008
 47688,0.03143399,0.50001825,-0.00825082,0.00619942,0.00276029,-0.00242
 157,0.00525369,-0.01041551,0.02215379,0.01045787,-0.00968564,0.0098211
 5,-0.09651687,-0.02597470,-0.01599564,0.55210874,-0.00520543,-0.003194
 72,-0.00652285,-0.00190242,-0.00577460,-0.00465214,0.03833986,-0.01511
 042,-0.02386964,0.03196557,-0.02251071,-0.14109805,-0.11541570,-0.0683
 4410,0.39517406,-0.10860548,-0.03937406,0.01666021,-0.06728303,-0.0403
 0022,0.05388742,-0.07520708,0.06359424,0.12495647,-0.02708287,-0.00935
 598,-0.04336294,-0.17093820,-0.00811842,-0.04600873,0.48772751,-0.0626
 1809,-0.10872931,0.00554449,-0.03108855,-0.02044357,-0.00170136,0.0665
 5958,-0.06626522,-0.19206702,-0.00812101,0.00074064,-0.02996056,0.0000
 6686,-0.07496846,0.01433568,0.02971431,0.26377397,-0.00811437,-0.00088
 156,0.00223258,0.02628027,-0.00561407,-0.02044135,0.11004264,-0.162635
 49,-0.42779974,-0.01480363,-0.03012149,-0.05219111,-0.01431754,0.00035
 881,-0.01390566,-0.10234677,0.20663072,0.50012079,-0.08961649,-0.08200
 380,-0.06545849,0.01030594,0.00389965,0.00563191,-0.00044293,-0.004242
 27,0.00036303,0.00062940,0.00215143,-0.00223560,0.00152258,-0.00086206
 ,-0.00182094,0.00087065,-0.00780685,-0.00278932,0.07851097,-0.07744069
 ,-0.17699640,-0.13110247,-0.01072869,0.00252733,0.00142700,-0.00694217
 ,-0.00175492,-0.00601381,-0.00035415,-0.00191014,-0.00222306,0.0008583
 1,-0.00114299,-0.00044791,0.00604750,0.00323859,-0.00730155,0.08792807
 ,0.17664694,-0.05862837,-0.13306600,-0.17318161,-0.00837391,-0.0124909
 1,-0.00053770,-0.00077632,-0.00163386,0.00001409,0.00092285,-0.0015059
 5,0.00145523,-0.00021569,0.00091007,0.00030992,-0.00014891,0.00197378,
 0.00440937,0.06807250,0.14508311,0.16862639,0.00392373,-0.00433057,-0.
 00004804,-0.21938163,-0.03866805,0.14900580,-0.00024024,-0.00208287,0.
 00518714,0.00031303,0.00087983,0.00185526,0.00011276,0.00175540,0.0009
 2906,-0.00327803,-0.00329473,0.00257989,-0.00092740,0.00154213,-0.0006
 4600,0.22079837,0.00334140,0.00615512,-0.00864804,-0.03958686,-0.05269
 883,0.01707265,-0.00046705,0.00630930,0.00765395,0.00014140,-0.0003421
 6,0.00209593,-0.00209870,0.00187471,0.00133907,-0.00622136,0.00111523,
 0.00089758,0.00137552,-0.00101352,0.00080582,0.04410622,0.03849378,0.0
 1687928,0.00742278,0.00220710,0.14065261,0.01791209,-0.16771045,-0.003
 94258,-0.00643993,0.00244307,-0.00016422,0.00043540,0.00072085,0.00043
 847,0.00260441,-0.00181559,0.00607505,-0.00173338,-0.00000671,-0.00091
 983,0.00063874,-0.00092326,-0.15904467,-0.02076621,0.16449198,0.000155
 99,-0.00037525,-0.00040319,0.00082983,0.00061245,-0.00319929,-0.010582
 85,-0.02366086,-0.00206845,-0.07390153,-0.08260521,-0.01953491,0.00379
 196,0.01194796,-0.00021062,-0.00253418,0.00050427,-0.00426253,0.000278
 99,-0.00064041,-0.00032115,0.00001737,-0.00006447,0.00010677,0.0784585
 2,0.00003951,-0.00046132,-0.00053885,0.00111460,-0.00004162,0.00054808
 ,-0.00067998,0.00581100,-0.00115466,-0.07930595,-0.27035303,-0.0638156
 8,-0.00067770,-0.00489576,0.00144658,-0.00121380,0.00087952,0.00054064
 ,-0.00018203,0.00008740,0.00005080,-0.00003508,-0.00002853,-0.00000900
 ,0.08852437,0.28675786,-0.00108122,0.00013283,-0.00178361,0.00151143,-
 0.00026723,0.00039505,-0.00711550,-0.00494254,-0.00488831,-0.01687446,
 -0.06718762,-0.06394992,-0.00741749,-0.01962356,-0.00047971,-0.0035488
 9,0.00036666,-0.00152215,-0.00039780,-0.00022564,-0.00012830,-0.000166
 16,-0.00003561,-0.00005628,0.02668771,0.07004567,0.06654902,0.00222525
 ,-0.00260236,-0.00006106,0.00063609,-0.00087142,0.00268893,-0.00405018
 ,0.01910493,-0.02525230,-0.04673324,0.02943873,-0.03351631,-0.00034861
 ,-0.00960614,0.01081860,-0.00437235,0.00225937,-0.00206358,-0.00070205
 ,-0.00036345,0.00032542,-0.00041648,0.00033837,-0.00029622,0.00287994,
 -0.00700835,0.00860911,0.05010165,0.00051563,-0.00075884,-0.00091640,0
 .00019105,0.00066471,0.00047878,0.00039577,0.00238574,-0.00016171,0.02
 555289,-0.16173529,0.13075756,-0.00184227,0.00749066,-0.01116255,0.000
 94100,-0.00324983,0.00077887,-0.00038257,0.00020266,-0.00007996,0.0000
 7714,-0.00004323,0.00007242,0.00559486,-0.01824619,0.02201257,-0.03136
 253,0.17280341,-0.00086889,-0.00171596,-0.00055142,0.00003117,-0.00012
 832,-0.00020783,-0.00246488,0.00422578,-0.00662008,-0.03146853,0.13207
 022,-0.18808509,-0.00295631,0.01495365,-0.01722851,-0.00042554,-0.0017
 8573,0.00167112,-0.00036820,-0.00011846,0.00012026,-0.00007358,-0.0001
 6764,0.00004796,0.00183573,-0.00585896,0.00721054,0.03674510,-0.140359
 18,0.20504134,0.00147780,-0.00186266,-0.00057077,0.00042566,-0.0016712
 9,0.00315849,-0.00343282,0.00002992,-0.00164017,-0.00242556,0.00115044
 ,-0.00062558,-0.07626490,0.09209996,-0.00803526,-0.01211979,0.02887700
 ,-0.00049901,-0.00037987,0.00020597,-0.00019101,-0.00063271,-0.0006177
 0,-0.00038791,0.00020757,-0.00043344,-0.00062917,0.00079135,0.00020035
 ,0.00049645,0.08361280,0.00079897,-0.00035168,-0.00072592,0.00105100,0
 .00053317,0.00083643,-0.00057815,0.00013264,0.00104700,0.00183973,-0.0
 0814953,0.00133744,0.08788006,-0.27675026,0.02422121,0.00105920,0.0028
 9691,-0.00081565,0.00002726,0.00013817,-0.00006602,-0.00015380,0.00011
 800,-0.00014582,0.00088837,0.00009159,-0.00075211,-0.00016389,0.000675
 70,-0.00004075,-0.09966496,0.29629076,0.00052813,-0.00128171,-0.000035
 83,0.00152806,-0.00018269,-0.00003302,-0.00248711,0.00419616,-0.002644
 73,0.00960917,-0.02743665,0.00045173,-0.00668567,0.02546084,-0.0434144
 8,-0.00380437,0.00934440,0.00090518,-0.00022982,0.00031198,-0.00016986
 ,0.00011916,-0.00024728,0.00013568,0.00192478,-0.00117299,-0.00243708,
 -0.00031715,-0.00011435,0.00053730,0.00720639,-0.02629378,0.04797764,0
 .00032358,0.00220161,0.00194354,-0.00106037,0.00054155,0.00080898,-0.0
 0543375,0.00249309,-0.00011559,-0.00064174,-0.00040691,0.00012757,-0.1
 3667328,-0.09252360,0.09654602,-0.01717715,-0.01505215,0.01029394,-0.0
 0004979,-0.00011242,-0.00001940,-0.00028879,-0.00024678,0.00060323,0.0
 0039840,-0.00014214,0.00042244,-0.00001138,0.00011865,-0.00048252,0.00
 874047,0.00701620,-0.00739156,0.15187380,-0.00021644,0.00053107,0.0001
 0805,0.00090649,-0.00066178,0.00030061,0.00114895,0.00023350,-0.000160
 71,0.00746165,0.00874595,-0.00599766,-0.09074025,-0.12911076,0.0852024
 6,0.00322759,0.00101155,-0.00183682,0.00009763,-0.00002311,0.00001913,
 0.00020438,0.00006015,0.00000850,-0.00072607,0.00039908,0.00047658,0.0
 0083674,-0.00018949,-0.00107466,-0.01831360,-0.01562548,0.01741607,0.0
 9611291,0.13462934,-0.00196405,0.00152403,0.00033147,0.00115078,-0.000
 60214,-0.00037015,0.00045838,0.00097793,0.00204114,0.00932578,0.016531
 84,-0.00967596,0.09176191,0.08699543,-0.14249735,-0.00193300,-0.010947
 69,0.00652768,0.00015257,-0.00002792,0.00000547,0.00030215,-0.00000022
 ,0.00046565,-0.00055487,-0.00008162,0.00109075,0.00231946,-0.00130605,
 -0.00193559,0.00171756,0.00139798,-0.00127254,-0.10273668,-0.09446156,
 0.14528944\\0.00000138,0.00002092,0.00002451,0.00001587,-0.00000598,-0
 .00003403,-0.00006653,0.00002542,0.00007244,0.00008832,-0.00004882,-0.
 00015014,-0.00001315,0.00005586,0.00016671,-0.00001618,-0.00006265,-0.
 00006911,0.00000692,0.00001280,-0.00001696,0.00000014,0.00002133,0.000
 00705,-0.00000464,-0.00000145,0.00001074,-0.00000951,-0.00001067,0.000
 00509,0.00000613,-0.00000573,-0.00000415,-0.00000874,-0.00000104,-0.00
 001215\\\@


      LET US REMEMBER, PLEASE, THAT THE SEARCH FOR THE CONSTITUTION
      OF THE WORLD IS ONE OF THE GREATEST AND NOBLEST PROBLEMS PRESENTED 
      BY NATURE.

                                                  -- GALILEO
 Job cpu time:       0 days  1 hours 26 minutes  8.2 seconds.
 File lengths (MBytes):  RWF=    130 Int=      0 D2E=      0 Chk=      8 Scr=      1
 Normal termination of Gaussian 09 at Mon Jan 23 12:27:22 2017.
